# LAMMPS data file written by OVITO Basic 3.2.1
23 atoms
28 bonds
3 atom types
1 bond types
11.981 18.96 xlo xhi
11.995 18.974 ylo yhi
0.0 6.979 zlo zhi

Masses

1 65.38  # Zn
2 12.0107  # C1
3 15.9994  # O1

Atoms  # full

1 16 1 0.0 16.577 14.363 2.376
2 14 1 0.0 14.347 16.615 2.376
3 14 1 0.0 14.339 14.378 4.621
4 16 1 0.0 16.592 16.608 4.613
5 15 2 0.0 15.482 18.974 3.49
6 15 2 0.0 15.458 15.485 0.0
7 18 2 0.0 18.96 15.473 3.491
8 15 2 0.0 15.446 11.995 3.503
9 11 2 0.0 11.981 15.508 3.501
10 15 3 0.0 15.464 15.491 3.496
11 16 3 0.0 16.278 14.658 0.5
12 12 3 0.0 12.47 16.328 2.677
13 14 3 0.0 14.627 12.5 4.327
14 14 3 0.0 14.64 16.313 0.5
15 16 3 0.0 16.27 12.489 2.677
16 12 3 0.0 12.464 14.684 4.326
17 18 3 0.0 18.466 16.301 4.313
18 18 3 0.0 18.455 14.651 2.67
19 14 3 0.0 14.654 18.49 2.669
20 16 3 0.0 16.303 18.485 4.313
21 15 2 0.0 15.469 15.497 6.979
22 14 3 0.0 14.641 14.677 6.496
23 16 3 0.0 16.296 16.316 6.49

Bonds

1 1 1 10
2 1 1 11
3 1 1 15
4 1 1 18
5 1 2 10
6 1 2 12
7 1 2 14
8 1 2 19
9 1 3 10
10 1 3 13
11 1 3 16
12 1 3 22
13 1 4 10
14 1 4 17
15 1 4 20
16 1 4 23
17 1 5 19
18 1 5 20
19 1 6 11
20 1 6 14
21 1 7 17
22 1 7 18
23 1 8 13
24 1 8 15
25 1 9 12
26 1 9 16
27 1 21 22
28 1 21 23
