# LAMMPS data file written by OVITO Basic 3.2.1
36 atoms
38 bonds
60 angles
88 dihedrals
20 impropers
10 atom types
18 bond types
33 angle types
9 dihedral types
3 improper types
-32.66206921 61.39197845 xlo xhi
-40.71896669 75.41717407 ylo yhi
-38.18646248 76.37292496 zlo zhi
0.60312084 3.32903913 6.02075931 xy xz yz

Masses

1 12.0107  # C1
2 12.0107  # C2
3 35.453  # Cl
4 63.546  # Cu
5 18.9984032  # F
6 1.00794  # H
7 14.0067  # N1
8 14.0067  # N2
9 15.9994  # O1
10 15.9994  # O2

Atoms  # full

2457 3 6 0.0 -1.95994979 -19.03659715 49.96492248
2510 3 2 0.0 -2.76975979 -17.09728715 50.38337248
2511 3 2 0.0 -2.80144979 -18.49524715 50.39892248
2512 3 2 0.0 -3.88511979 -19.19762715 50.95605248
2513 3 2 0.0 -4.93608979 -18.45525715 51.50084248
2514 3 2 0.0 -4.90033979 -17.05261715 51.47094248
2538 3 2 0.0 -3.88209979 -20.68615715 50.88988248
2549 3 3 0.0 -6.34215979 -19.14484715 52.23562248
2554 3 10 0.0 -2.76922979 -21.18239715 50.84566248
2556 3 10 0.0 -4.99290979 -21.18899715 50.88975248
2695 3 6 0.0 -5.71556979 -7.87450715 51.80786248
2696 3 6 0.0 -5.79207979 -10.30273715 51.68703248
2697 3 6 0.0 -1.85564979 -10.34223715 49.91548248
2698 3 6 0.0 -2.72073979 -12.27277715 48.94824248
2699 3 6 0.0 -2.70445979 -14.68466715 49.01552248
2700 3 6 0.0 -1.89458979 -16.61220715 49.95252248
2702 3 6 0.0 -5.74654979 -16.50598715 51.88515248
2703 3 6 0.0 -4.94600979 -14.59143715 52.70960248
2704 3 6 0.0 -4.97780979 -12.19557715 52.63178248
2743 3 2 0.0 -3.76274979 -7.69714715 50.88718248
2744 3 2 0.0 -4.86949979 -8.40527715 51.37170248
2745 3 2 0.0 -4.90374979 -9.79858715 51.30931248
2746 3 2 0.0 -3.82783979 -10.53316715 50.78847248
2747 3 2 0.0 -2.72156979 -9.80981715 50.30712248
2748 3 2 0.0 -2.68494979 -8.40942715 50.35438248
2749 3 2 0.0 -3.84272979 -12.00878715 50.78897248
2750 3 2 0.0 -3.21167979 -12.76004715 49.78800248
2751 3 2 0.0 -3.20214979 -14.15891715 49.82815248
2752 3 2 0.0 -3.82316979 -14.86689715 50.86837248
2753 3 2 0.0 -3.82484979 -16.34245715 50.90925248
2759 3 2 0.0 -4.45877979 -14.11182715 51.86371248
2760 3 2 0.0 -4.47432979 -12.71725715 51.82047248
2784 3 2 0.0 -3.76585979 -6.20861715 50.95336248
2792 3 3 0.0 -1.25486979 -7.64589715 49.75488248
2799 3 10 0.0 -2.65506979 -5.70575715 50.95346248
2803 3 10 0.0 -4.87874979 -5.71235715 50.99755248

Bonds

1 4 2457 2511
2 4 2510 2700
3 4 2514 2702
4 4 2695 2744
5 4 2696 2745
6 4 2697 2747
7 4 2698 2750
8 4 2699 2751
9 4 2703 2759
10 4 2704 2760
11 7 2510 2753
12 7 2510 2511
13 7 2511 2512
14 7 2512 2513
15 7 2513 2514
16 7 2514 2753
17 7 2743 2744
18 7 2743 2748
19 7 2744 2745
20 7 2745 2746
21 7 2746 2747
22 7 2747 2748
23 7 2749 2760
24 7 2749 2750
25 7 2750 2751
26 7 2751 2752
27 7 2752 2759
28 7 2759 2760
29 9 2512 2538
30 9 2743 2784
31 9 2746 2749
32 9 2752 2753
33 12 2513 2549
34 12 2748 2792
35 17 2538 2556
36 17 2538 2554
37 17 2784 2803
38 17 2784 2799

Angles

1 5 2753 2510 2511
2 5 2510 2511 2512
3 5 2511 2512 2513
4 5 2512 2513 2514
5 5 2513 2514 2753
6 5 2744 2743 2748
7 5 2743 2744 2745
8 5 2744 2745 2746
9 5 2745 2746 2747
10 5 2746 2747 2748
11 5 2743 2748 2747
12 5 2760 2749 2750
13 5 2749 2750 2751
14 5 2750 2751 2752
15 5 2751 2752 2759
16 5 2510 2753 2514
17 5 2752 2759 2760
18 5 2749 2760 2759
19 7 2511 2512 2538
20 7 2538 2512 2513
21 7 2744 2743 2784
22 7 2748 2743 2784
23 7 2745 2746 2749
24 7 2749 2746 2747
25 7 2746 2749 2760
26 7 2746 2749 2750
27 7 2751 2752 2753
28 7 2753 2752 2759
29 7 2510 2753 2752
30 7 2514 2753 2752
31 10 2753 2510 2700
32 10 2511 2510 2700
33 10 2510 2511 2457
34 10 2512 2511 2457
35 10 2513 2514 2702
36 10 2753 2514 2702
37 10 2743 2744 2695
38 10 2745 2744 2695
39 10 2744 2745 2696
40 10 2746 2745 2696
41 10 2746 2747 2697
42 10 2748 2747 2697
43 10 2749 2750 2698
44 10 2751 2750 2698
45 10 2750 2751 2699
46 10 2752 2751 2699
47 10 2752 2759 2703
48 10 2760 2759 2703
49 10 2749 2760 2704
50 10 2759 2760 2704
51 16 2512 2513 2549
52 16 2514 2513 2549
53 16 2743 2748 2792
54 16 2747 2748 2792
55 25 2512 2538 2556
56 25 2512 2538 2554
57 25 2743 2784 2803
58 25 2743 2784 2799
59 26 2556 2538 2554
60 26 2803 2784 2799

Dihedrals

1 1 2700 2510 2753 2514
2 1 2700 2510 2753 2752
3 1 2511 2510 2753 2514
4 1 2511 2510 2753 2752
5 1 2700 2510 2511 2457
6 1 2700 2510 2511 2512
7 1 2753 2510 2511 2457
8 1 2753 2510 2511 2512
9 1 2457 2511 2512 2538
10 1 2457 2511 2512 2513
11 1 2510 2511 2512 2538
12 1 2510 2511 2512 2513
13 1 2511 2512 2513 2514
14 1 2511 2512 2513 2549
15 1 2538 2512 2513 2514
16 1 2538 2512 2513 2549
17 1 2512 2513 2514 2702
18 1 2512 2513 2514 2753
19 1 2549 2513 2514 2702
20 1 2549 2513 2514 2753
21 1 2513 2514 2753 2510
22 1 2513 2514 2753 2752
23 1 2702 2514 2753 2510
24 1 2702 2514 2753 2752
25 1 2748 2743 2744 2695
26 1 2748 2743 2744 2745
27 1 2784 2743 2744 2695
28 1 2784 2743 2744 2745
29 1 2744 2743 2748 2747
30 1 2744 2743 2748 2792
31 1 2784 2743 2748 2747
32 1 2784 2743 2748 2792
33 1 2695 2744 2745 2696
34 1 2695 2744 2745 2746
35 1 2743 2744 2745 2696
36 1 2743 2744 2745 2746
37 1 2696 2745 2746 2749
38 1 2696 2745 2746 2747
39 1 2744 2745 2746 2749
40 1 2744 2745 2746 2747
41 1 2745 2746 2747 2697
42 1 2745 2746 2747 2748
43 1 2749 2746 2747 2697
44 1 2749 2746 2747 2748
45 1 2697 2747 2748 2743
46 1 2697 2747 2748 2792
47 1 2746 2747 2748 2743
48 1 2746 2747 2748 2792
49 1 2746 2749 2760 2704
50 1 2746 2749 2760 2759
51 1 2750 2749 2760 2704
52 1 2750 2749 2760 2759
53 1 2746 2749 2750 2698
54 1 2746 2749 2750 2751
55 1 2760 2749 2750 2698
56 1 2760 2749 2750 2751
57 1 2698 2750 2751 2699
58 1 2698 2750 2751 2752
59 1 2749 2750 2751 2699
60 1 2749 2750 2751 2752
61 1 2699 2751 2752 2753
62 1 2699 2751 2752 2759
63 1 2750 2751 2752 2753
64 1 2750 2751 2752 2759
65 1 2751 2752 2759 2703
66 1 2751 2752 2759 2760
67 1 2753 2752 2759 2703
68 1 2753 2752 2759 2760
69 1 2703 2759 2760 2704
70 1 2703 2759 2760 2749
71 1 2752 2759 2760 2704
72 1 2752 2759 2760 2749
73 2 2511 2512 2538 2556
74 2 2511 2512 2538 2554
75 2 2513 2512 2538 2556
76 2 2513 2512 2538 2554
77 2 2744 2743 2784 2803
78 2 2744 2743 2784 2799
79 2 2748 2743 2784 2803
80 2 2748 2743 2784 2799
81 2 2745 2746 2749 2760
82 2 2745 2746 2749 2750
83 2 2747 2746 2749 2760
84 2 2747 2746 2749 2750
85 2 2751 2752 2753 2510
86 2 2751 2752 2753 2514
87 2 2759 2752 2753 2510
88 2 2759 2752 2753 2514

Impropers

1 1 2510 2700 2753 2511
2 1 2511 2457 2510 2512
3 1 2512 2511 2538 2513
4 1 2513 2512 2514 2549
5 1 2514 2513 2702 2753
6 1 2743 2744 2748 2784
7 1 2744 2695 2743 2745
8 1 2745 2696 2744 2746
9 1 2746 2745 2749 2747
10 1 2747 2697 2746 2748
11 1 2748 2743 2747 2792
12 1 2749 2746 2760 2750
13 1 2750 2698 2749 2751
14 1 2751 2699 2750 2752
15 1 2752 2751 2753 2759
16 1 2753 2510 2514 2752
17 1 2759 2703 2752 2760
18 1 2760 2704 2749 2759
19 2 2538 2512 2556 2554
20 2 2784 2743 2803 2799
