# LAMMPS data file written by OVITO Basic 3.2.1
52 atoms
54 bonds
96 angles
133 dihedrals
14 impropers
10 atom types
18 bond types
33 angle types
9 dihedral types
3 improper types
-32.66206921 61.39197845 xlo xhi
-40.71896669 75.41717407 ylo yhi
-38.18646248 76.37292496 zlo zhi
0.60312084 3.32903913 6.02075931 xy xz yz

Masses

1 12.0107  # C1
2 12.0107  # C2
3 35.453  # Cl
4 63.546  # Cu
5 18.9984032  # F
6 1.00794  # H
7 14.0067  # N1
8 14.0067  # N2
9 15.9994  # O1
10 15.9994  # O2

Atoms  # full

2719 3 6 0.0 -5.43061979 -1.52598715 56.96158248
2720 3 6 0.0 -5.37675979 -2.14899715 54.63169248
2721 3 6 0.0 -2.08448979 -4.80188715 55.39074248
2773 3 2 0.0 -4.69070979 -2.26393715 56.66159248
2774 3 2 0.0 -4.64020979 -2.59013715 55.29989248
2775 3 2 0.0 -3.69685979 -3.49946715 54.83950248
2776 3 2 0.0 -2.81130979 -4.07565715 55.75547248
2777 3 2 0.0 -2.87564979 -3.77544715 57.13060248
2781 3 2 0.0 -3.72575979 -3.65479715 53.35792248
2797 3 10 0.0 -2.62361979 -3.70355715 52.83863248
2801 3 10 0.0 -4.84731979 -3.71015715 52.88272248
2827 3 6 0.0 -3.55283979 -5.94667715 62.56898248
2828 3 6 0.0 -4.97612979 -6.00481715 63.65931248
2829 3 6 0.0 -3.36900979 -6.50071715 64.21187248
2830 3 6 0.0 -2.77567979 -0.97275715 65.75441248
2831 3 6 0.0 -3.84630979 -5.10568715 66.10418248
2832 3 6 0.0 -3.04637979 -0.72220715 62.13311248
2833 3 6 0.0 -1.69561979 -0.50698715 63.25768248
2834 3 6 0.0 -3.32631979 0.10357285 63.63695248
2835 3 6 0.0 -5.26943979 -4.62941715 61.97624248
2836 3 6 0.0 -4.28637979 -4.75527715 60.53490248
2837 3 6 0.0 -6.36226979 -2.66069715 61.33085248
2838 3 6 0.0 -6.47313979 -3.86693715 60.06665248
2839 3 6 0.0 -5.16855979 -1.19323715 60.04824248
2840 3 6 0.0 -6.06251979 -2.03948715 58.82165248
2844 3 6 0.0 -1.39933979 -5.32366715 57.46425248
2845 3 6 0.0 -2.46960979 -5.03214715 58.81890248
2846 3 6 0.0 -1.14897979 -3.87583715 58.41499248
2847 3 6 0.0 -2.99452979 -1.07627715 60.07142248
2848 3 6 0.0 -1.90734979 -2.00742715 59.11484248
2849 3 6 0.0 -1.65025979 -2.51757715 61.52611248
2850 3 6 0.0 -2.08655979 -3.96286715 60.66846248
2883 3 1 0.0 -3.90629979 -5.77639715 63.58833248
2884 3 2 0.0 -3.64223979 -4.36971715 64.07292248
2885 3 2 0.0 -3.44251979 -3.23081715 63.24196248
2886 3 2 0.0 -3.07520979 -2.01503715 63.89486248
2887 3 2 0.0 -3.00041979 -1.93613715 65.30276248
2888 3 2 0.0 -3.29564979 -3.03582715 66.09694248
2889 3 2 0.0 -3.61279979 -4.24145715 65.48088248
2890 3 1 0.0 -2.76813979 -0.72107715 63.18197248
2891 3 1 0.0 -4.71460979 -4.03760715 61.24810248
2892 3 1 0.0 -5.77255979 -3.18693715 60.56919248
2893 3 1 0.0 -5.26533979 -2.17077715 59.55883248
2894 3 2 0.0 -3.83570979 -2.85236715 57.61815248
2900 3 1 0.0 -1.92387979 -4.53464715 58.01514248
2901 3 1 0.0 -2.79889979 -2.10417715 59.74356248
2902 3 1 0.0 -2.47705979 -2.99089715 60.98284248
2905 3 2 0.0 -3.26681979 -2.88049715 67.57855248
2912 3 7 0.0 -3.65546979 -3.21834715 61.85843248
2913 3 7 0.0 -3.97543979 -2.57134715 58.97311248
2918 3 10 0.0 -2.14529979 -2.82511715 68.05375248
2924 3 10 0.0 -4.36899979 -2.83170715 68.09784248

Bonds

1 4 2719 2773
2 4 2720 2774
3 4 2721 2776
4 4 2830 2887
5 4 2831 2889
6 6 2827 2883
7 6 2828 2883
8 6 2829 2883
9 6 2832 2890
10 6 2833 2890
11 6 2834 2890
12 6 2835 2891
13 6 2836 2891
14 6 2837 2892
15 6 2838 2892
16 6 2839 2893
17 6 2840 2893
18 6 2844 2900
19 6 2845 2900
20 6 2846 2900
21 6 2847 2901
22 6 2848 2901
23 6 2849 2902
24 6 2850 2902
25 7 2773 2894
26 7 2773 2774
27 7 2774 2775
28 7 2775 2776
29 7 2776 2777
30 7 2777 2894
31 7 2884 2889
32 7 2884 2885
33 7 2885 2886
34 7 2886 2887
35 7 2887 2888
36 7 2888 2889
37 9 2775 2781
38 9 2888 2905
39 13 2777 2900
40 13 2883 2884
41 13 2886 2890
42 14 2885 2912
43 14 2894 2913
44 15 2891 2912
45 15 2893 2913
46 15 2901 2913
47 15 2902 2912
48 16 2891 2892
49 16 2892 2893
50 16 2901 2902
51 17 2781 2801
52 17 2781 2797
53 17 2905 2918
54 17 2905 2924

Angles

1 5 2894 2773 2774
2 5 2773 2774 2775
3 5 2774 2775 2776
4 5 2775 2776 2777
5 5 2776 2777 2894
6 5 2889 2884 2885
7 5 2884 2885 2886
8 5 2885 2886 2887
9 5 2886 2887 2888
10 5 2887 2888 2889
11 5 2884 2889 2888
12 5 2773 2894 2777
13 7 2774 2775 2781
14 7 2776 2775 2781
15 7 2887 2888 2905
16 7 2905 2888 2889
17 10 2894 2773 2719
18 10 2774 2773 2719
19 10 2773 2774 2720
20 10 2775 2774 2720
21 10 2775 2776 2721
22 10 2777 2776 2721
23 10 2886 2887 2830
24 10 2888 2887 2830
25 10 2884 2889 2831
26 10 2888 2889 2831
27 17 2827 2883 2828
28 17 2827 2883 2829
29 17 2828 2883 2829
30 17 2832 2890 2833
31 17 2832 2890 2834
32 17 2833 2890 2834
33 17 2835 2891 2836
34 17 2837 2892 2838
35 17 2839 2893 2840
36 17 2844 2900 2845
37 17 2844 2900 2846
38 17 2845 2900 2846
39 17 2847 2901 2848
40 17 2849 2902 2850
41 18 2884 2883 2827
42 18 2884 2883 2828
43 18 2884 2883 2829
44 18 2886 2890 2832
45 18 2886 2890 2833
46 18 2886 2890 2834
47 18 2777 2900 2844
48 18 2777 2900 2845
49 18 2777 2900 2846
50 19 2900 2777 2776
51 19 2900 2777 2894
52 19 2883 2884 2889
53 19 2883 2884 2885
54 19 2890 2886 2885
55 19 2890 2886 2887
56 20 2884 2885 2912
57 20 2886 2885 2912
58 20 2773 2894 2913
59 20 2777 2894 2913
60 21 2835 2891 2912
61 21 2836 2891 2912
62 21 2839 2893 2913
63 21 2840 2893 2913
64 21 2847 2901 2913
65 21 2848 2901 2913
66 21 2849 2902 2912
67 21 2850 2902 2912
68 22 2892 2891 2835
69 22 2892 2891 2836
70 22 2891 2892 2837
71 22 2893 2892 2837
72 22 2891 2892 2838
73 22 2893 2892 2838
74 22 2892 2893 2839
75 22 2892 2893 2840
76 22 2902 2901 2847
77 22 2902 2901 2848
78 22 2901 2902 2849
79 22 2901 2902 2850
80 23 2892 2891 2912
81 23 2892 2893 2913
82 23 2902 2901 2913
83 23 2901 2902 2912
84 24 2891 2892 2893
85 25 2775 2781 2801
86 25 2775 2781 2797
87 25 2888 2905 2918
88 25 2888 2905 2924
89 26 2801 2781 2797
90 26 2918 2905 2924
91 31 2891 2912 2885
92 31 2902 2912 2885
93 31 2893 2913 2894
94 31 2901 2913 2894
95 32 2891 2912 2902
96 32 2893 2913 2901

Dihedrals

1 1 2719 2773 2894 2777
2 1 2719 2773 2894 2913
3 1 2774 2773 2894 2777
4 1 2774 2773 2894 2913
5 1 2719 2773 2774 2720
6 1 2719 2773 2774 2775
7 1 2894 2773 2774 2720
8 1 2894 2773 2774 2775
9 1 2720 2774 2775 2776
10 1 2720 2774 2775 2781
11 1 2773 2774 2775 2776
12 1 2773 2774 2775 2781
13 1 2774 2775 2776 2721
14 1 2774 2775 2776 2777
15 1 2781 2775 2776 2721
16 1 2781 2775 2776 2777
17 1 2721 2776 2777 2894
18 1 2721 2776 2777 2900
19 1 2775 2776 2777 2894
20 1 2775 2776 2777 2900
21 1 2776 2777 2894 2773
22 1 2776 2777 2894 2913
23 1 2900 2777 2894 2773
24 1 2900 2777 2894 2913
25 1 2883 2884 2889 2831
26 1 2883 2884 2889 2888
27 1 2885 2884 2889 2831
28 1 2885 2884 2889 2888
29 1 2883 2884 2885 2886
30 1 2883 2884 2885 2912
31 1 2889 2884 2885 2886
32 1 2889 2884 2885 2912
33 1 2884 2885 2886 2890
34 1 2884 2885 2886 2887
35 1 2912 2885 2886 2890
36 1 2912 2885 2886 2887
37 1 2885 2886 2887 2830
38 1 2885 2886 2887 2888
39 1 2890 2886 2887 2830
40 1 2890 2886 2887 2888
41 1 2830 2887 2888 2905
42 1 2830 2887 2888 2889
43 1 2886 2887 2888 2905
44 1 2886 2887 2888 2889
45 1 2887 2888 2889 2831
46 1 2887 2888 2889 2884
47 1 2905 2888 2889 2831
48 1 2905 2888 2889 2884
49 2 2774 2775 2781 2801
50 2 2774 2775 2781 2797
51 2 2776 2775 2781 2801
52 2 2776 2775 2781 2797
53 2 2887 2888 2905 2918
54 2 2887 2888 2905 2924
55 2 2889 2888 2905 2918
56 2 2889 2888 2905 2924
57 4 2776 2777 2900 2844
58 4 2776 2777 2900 2845
59 4 2776 2777 2900 2846
60 4 2894 2777 2900 2844
61 4 2894 2777 2900 2845
62 4 2894 2777 2900 2846
63 4 2827 2883 2884 2889
64 4 2827 2883 2884 2885
65 4 2828 2883 2884 2889
66 4 2828 2883 2884 2885
67 4 2829 2883 2884 2889
68 4 2829 2883 2884 2885
69 4 2885 2886 2890 2832
70 4 2885 2886 2890 2833
71 4 2885 2886 2890 2834
72 4 2887 2886 2890 2832
73 4 2887 2886 2890 2833
74 4 2887 2886 2890 2834
75 5 2884 2885 2912 2891
76 5 2884 2885 2912 2902
77 5 2886 2885 2912 2891
78 5 2886 2885 2912 2902
79 5 2773 2894 2913 2893
80 5 2773 2894 2913 2901
81 5 2777 2894 2913 2893
82 5 2777 2894 2913 2901
83 6 2835 2891 2912 2885
84 6 2835 2891 2912 2902
85 6 2836 2891 2912 2885
86 6 2836 2891 2912 2902
87 6 2892 2891 2912 2885
88 6 2892 2891 2912 2902
89 6 2839 2893 2913 2894
90 6 2839 2893 2913 2901
91 6 2840 2893 2913 2894
92 6 2840 2893 2913 2901
93 6 2892 2893 2913 2894
94 6 2892 2893 2913 2901
95 6 2847 2901 2913 2893
96 6 2847 2901 2913 2894
97 6 2848 2901 2913 2893
98 6 2848 2901 2913 2894
99 6 2902 2901 2913 2893
100 6 2902 2901 2913 2894
101 6 2849 2902 2912 2885
102 6 2849 2902 2912 2891
103 6 2850 2902 2912 2885
104 6 2850 2902 2912 2891
105 6 2901 2902 2912 2885
106 6 2901 2902 2912 2891
107 7 2835 2891 2892 2837
108 7 2835 2891 2892 2838
109 7 2835 2891 2892 2893
110 7 2836 2891 2892 2837
111 7 2836 2891 2892 2838
112 7 2836 2891 2892 2893
113 7 2912 2891 2892 2837
114 7 2912 2891 2892 2838
115 7 2912 2891 2892 2893
116 7 2837 2892 2893 2839
117 7 2837 2892 2893 2840
118 7 2837 2892 2893 2913
119 7 2838 2892 2893 2839
120 7 2838 2892 2893 2840
121 7 2838 2892 2893 2913
122 7 2891 2892 2893 2839
123 7 2891 2892 2893 2840
124 7 2891 2892 2893 2913
125 7 2847 2901 2902 2849
126 7 2847 2901 2902 2850
127 7 2847 2901 2902 2912
128 7 2848 2901 2902 2849
129 7 2848 2901 2902 2850
130 7 2848 2901 2902 2912
131 7 2913 2901 2902 2849
132 7 2913 2901 2902 2850
133 7 2913 2901 2902 2912

Impropers

1 1 2773 2719 2894 2774
2 1 2774 2720 2773 2775
3 1 2775 2774 2776 2781
4 1 2776 2721 2775 2777
5 1 2777 2776 2894 2900
6 1 2884 2883 2889 2885
7 1 2885 2884 2886 2912
8 1 2886 2885 2890 2887
9 1 2887 2830 2886 2888
10 1 2888 2887 2905 2889
11 1 2889 2831 2884 2888
12 1 2894 2773 2777 2913
13 2 2781 2775 2801 2797
14 2 2905 2888 2918 2924
