# LAMMPS data file written by OVITO Basic 3.2.1
36 atoms
38 bonds
60 angles
88 dihedrals
20 impropers
10 atom types
15 bond types
27 angle types
7 dihedral types
3 improper types
-42.6572024 86.29286374 xlo xhi
-41.64391961 82.71779509 ylo yhi
-42.71488502 85.42977004 zlo zhi
-1.34497266 0.36651372 0.57004413 xy xz yz

Masses

1 12.0107  # C1
2 12.0107  # C2
3 18.9984032  # F
4 1.00794  # H
5 14.0067  # N1
6 14.0067  # N2
7 15.9994  # O1
8 15.9994  # O2
9 15.9994  # O3
10 65.38  # Zn

Atoms  # full

24761 27 4 0.0 59.7699024 50.18750961 55.14068502
24762 27 4 0.0 59.8018224 54.05803961 53.23187502
24803 27 2 0.0 60.2969824 51.02111961 54.68396502
24804 27 2 0.0 59.6072824 52.10962961 54.14358502
24805 27 2 0.0 60.3254124 53.19118961 53.63202502
24843 27 2 0.0 58.1173124 52.11716961 54.14603502
24862 27 8 0.0 57.6228224 52.94448961 54.96865502
24864 27 8 0.0 57.6117924 51.29492961 53.32504502
25233 27 4 0.0 68.4989724 54.05092961 53.18743502
25234 27 4 0.0 66.5867024 49.96970961 53.89816502
25235 27 4 0.0 64.1760624 49.95179961 53.90235502
25236 27 4 0.0 62.2049324 50.16389961 55.14486502
25239 27 4 0.0 62.2422224 54.02725961 53.20565502
25240 27 4 0.0 64.1472424 54.22820961 54.47285502
25241 27 4 0.0 66.5558524 54.25138961 54.46533502
25267 27 2 0.0 71.1396824 52.15532961 54.15654502
25268 27 2 0.0 70.4083624 53.21402961 53.63862502
25269 27 2 0.0 69.0106224 53.20210961 53.63622502
25270 27 2 0.0 68.2896124 52.12318961 54.18128502
25271 27 2 0.0 69.0495324 51.07020961 54.72315502
25272 27 2 0.0 70.4467924 51.07722961 54.69897502
25273 27 2 0.0 66.8063624 52.11147961 54.18056502
25274 27 2 0.0 66.0766524 50.92316961 54.02925502
25275 27 2 0.0 64.6732824 50.91081961 54.03258502
25276 27 2 0.0 63.9292024 52.08959961 54.17941502
25277 27 2 0.0 62.4465524 52.08766961 54.16599502
25278 27 2 0.0 61.6996224 51.01540961 54.69150502
25282 27 2 0.0 61.7236524 53.17177961 53.63400502
25283 27 2 0.0 64.6601024 53.27863961 54.33235502
25284 27 2 0.0 66.0626924 53.29136961 54.33017502
25321 27 2 0.0 72.6296724 52.15154961 54.15668502
25332 27 8 0.0 73.1188924 52.97185961 53.33187502
25336 27 8 0.0 73.1132524 51.32825961 54.98145502
25343 27 3 0.0 71.0358724 54.28860961 53.13783502
25344 27 3 0.0 71.0954924 50.03921961 55.24381502
25345 27 3 0.0 68.4404624 50.02246961 55.30152502

Bonds

1 3 24761 24803
2 3 24762 24805
3 3 25233 25269
4 3 25234 25274
5 3 25235 25275
6 3 25236 25278
7 3 25239 25282
8 3 25240 25283
9 3 25241 25284
10 7 24804 24843
11 7 25267 25321
12 7 25270 25273
13 7 25276 25277
14 8 24803 24804
15 8 24803 25278
16 8 24804 24805
17 8 24805 25282
18 8 25267 25268
19 8 25267 25272
20 8 25268 25269
21 8 25269 25270
22 8 25270 25271
23 8 25271 25272
24 8 25273 25284
25 8 25273 25274
26 8 25274 25275
27 8 25275 25276
28 8 25276 25283
29 8 25277 25278
30 8 25277 25282
31 8 25283 25284
32 9 25268 25343
33 9 25271 25345
34 9 25272 25344
35 15 24843 24862
36 15 24843 24864
37 15 25321 25332
38 15 25321 25336

Angles

1 3 24803 24804 24843
2 3 24805 24804 24843
3 3 25321 25267 25268
4 3 25321 25267 25272
5 3 25269 25270 25273
6 3 25273 25270 25271
7 3 25270 25273 25284
8 3 25270 25273 25274
9 3 25275 25276 25277
10 3 25283 25276 25277
11 3 25276 25277 25278
12 3 25276 25277 25282
13 4 24804 24803 25278
14 4 24803 24804 24805
15 4 24804 24805 25282
16 4 25268 25267 25272
17 4 25267 25268 25269
18 4 25268 25269 25270
19 4 25269 25270 25271
20 4 25270 25271 25272
21 4 25267 25272 25271
22 4 25284 25273 25274
23 4 25273 25274 25275
24 4 25274 25275 25276
25 4 25275 25276 25283
26 4 25278 25277 25282
27 4 24803 25278 25277
28 4 24805 25282 25277
29 4 25276 25283 25284
30 4 25273 25284 25283
31 5 25267 25268 25343
32 5 25269 25268 25343
33 5 25270 25271 25345
34 5 25272 25271 25345
35 5 25267 25272 25344
36 5 25271 25272 25344
37 6 24804 24803 24761
38 6 25278 24803 24761
39 6 24804 24805 24762
40 6 25282 24805 24762
41 6 25268 25269 25233
42 6 25270 25269 25233
43 6 25273 25274 25234
44 6 25275 25274 25234
45 6 25274 25275 25235
46 6 25276 25275 25235
47 6 24803 25278 25236
48 6 25277 25278 25236
49 6 24805 25282 25239
50 6 25277 25282 25239
51 6 25276 25283 25240
52 6 25284 25283 25240
53 6 25273 25284 25241
54 6 25283 25284 25241
55 18 24804 24843 24862
56 18 24804 24843 24864
57 18 25267 25321 25332
58 18 25267 25321 25336
59 19 24862 24843 24864
60 19 25332 25321 25336

Dihedrals

1 1 24803 24804 24843 24862
2 1 24803 24804 24843 24864
3 1 24805 24804 24843 24862
4 1 24805 24804 24843 24864
5 1 25268 25267 25321 25332
6 1 25268 25267 25321 25336
7 1 25272 25267 25321 25332
8 1 25272 25267 25321 25336
9 1 25269 25270 25273 25284
10 1 25269 25270 25273 25274
11 1 25271 25270 25273 25284
12 1 25271 25270 25273 25274
13 1 25275 25276 25277 25278
14 1 25275 25276 25277 25282
15 1 25283 25276 25277 25278
16 1 25283 25276 25277 25282
17 2 24761 24803 24804 24805
18 2 24761 24803 24804 24843
19 2 25278 24803 24804 24805
20 2 25278 24803 24804 24843
21 2 24761 24803 25278 25236
22 2 24761 24803 25278 25277
23 2 24804 24803 25278 25236
24 2 24804 24803 25278 25277
25 2 24803 24804 24805 24762
26 2 24803 24804 24805 25282
27 2 24843 24804 24805 24762
28 2 24843 24804 24805 25282
29 2 24762 24805 25282 25239
30 2 24762 24805 25282 25277
31 2 24804 24805 25282 25239
32 2 24804 24805 25282 25277
33 2 25321 25267 25268 25343
34 2 25321 25267 25268 25269
35 2 25272 25267 25268 25343
36 2 25272 25267 25268 25269
37 2 25321 25267 25272 25271
38 2 25321 25267 25272 25344
39 2 25268 25267 25272 25271
40 2 25268 25267 25272 25344
41 2 25267 25268 25269 25233
42 2 25267 25268 25269 25270
43 2 25343 25268 25269 25233
44 2 25343 25268 25269 25270
45 2 25233 25269 25270 25273
46 2 25233 25269 25270 25271
47 2 25268 25269 25270 25273
48 2 25268 25269 25270 25271
49 2 25269 25270 25271 25272
50 2 25269 25270 25271 25345
51 2 25273 25270 25271 25272
52 2 25273 25270 25271 25345
53 2 25270 25271 25272 25267
54 2 25270 25271 25272 25344
55 2 25345 25271 25272 25267
56 2 25345 25271 25272 25344
57 2 25270 25273 25284 25241
58 2 25270 25273 25284 25283
59 2 25274 25273 25284 25241
60 2 25274 25273 25284 25283
61 2 25270 25273 25274 25234
62 2 25270 25273 25274 25275
63 2 25284 25273 25274 25234
64 2 25284 25273 25274 25275
65 2 25234 25274 25275 25235
66 2 25234 25274 25275 25276
67 2 25273 25274 25275 25235
68 2 25273 25274 25275 25276
69 2 25235 25275 25276 25283
70 2 25235 25275 25276 25277
71 2 25274 25275 25276 25283
72 2 25274 25275 25276 25277
73 2 25275 25276 25283 25240
74 2 25275 25276 25283 25284
75 2 25277 25276 25283 25240
76 2 25277 25276 25283 25284
77 2 25276 25277 25278 24803
78 2 25276 25277 25278 25236
79 2 25282 25277 25278 24803
80 2 25282 25277 25278 25236
81 2 25276 25277 25282 24805
82 2 25276 25277 25282 25239
83 2 25278 25277 25282 24805
84 2 25278 25277 25282 25239
85 2 25240 25283 25284 25241
86 2 25240 25283 25284 25273
87 2 25276 25283 25284 25241
88 2 25276 25283 25284 25273

Impropers

1 1 24803 24761 24804 25278
2 1 24804 24803 24805 24843
3 1 24805 24762 24804 25282
4 1 25267 25321 25268 25272
5 1 25268 25267 25343 25269
6 1 25269 25233 25268 25270
7 1 25270 25269 25273 25271
8 1 25271 25270 25272 25345
9 1 25272 25267 25271 25344
10 1 25273 25270 25284 25274
11 1 25274 25234 25273 25275
12 1 25275 25235 25274 25276
13 1 25276 25275 25283 25277
14 1 25277 25276 25278 25282
15 1 25278 24803 25236 25277
16 1 25282 24805 25239 25277
17 1 25283 25240 25276 25284
18 1 25284 25241 25273 25283
19 2 24843 24804 24862 24864
20 2 25321 25267 25332 25336
