# LAMMPS data file written by OVITO Basic 3.2.1
35 atoms
36 bonds
57 angles
80 dihedrals
17 impropers
10 atom types
15 bond types
27 angle types
7 dihedral types
3 improper types
-42.6572024 86.29286374 xlo xhi
-41.64391961 82.71779509 ylo yhi
-42.71488502 85.42977004 zlo zhi
-1.34497266 0.36651372 0.57004413 xy xz yz

Masses

1 12.0107  # C1
2 12.0107  # C2
3 18.9984032  # F
4 1.00794  # H
5 14.0067  # N1
6 14.0067  # N2
7 15.9994  # O1
8 15.9994  # O2
9 15.9994  # O3
10 65.38  # Zn

Atoms  # full

8114 9 4 0.0 -8.15386836 57.38738961 55.48471502
8160 9 2 0.0 -9.82814836 57.10769961 54.14097502
8181 9 2 0.0 -9.83625836 55.61772961 54.14506502
8205 9 8 0.0 -10.66364836 55.13402961 53.32435502
8206 9 8 0.0 -9.01436836 55.12865961 54.96825502
8210 9 3 0.0 -11.61711836 57.06256961 52.58368502
8344 9 4 0.0 -8.83037836 65.93822961 51.69930502
8345 9 4 0.0 -11.51492836 64.86754961 54.92131502
8346 9 4 0.0 -11.45357836 67.19594961 55.71017502
8347 9 4 0.0 -10.78424836 63.22306961 53.39558502
8348 9 4 0.0 -9.13600836 61.42716961 50.84290502
8349 9 4 0.0 -10.65425836 61.59871961 51.75488502
8350 9 4 0.0 -7.97541836 61.30570961 53.04728502
8351 9 4 0.0 -10.90289836 59.39539961 51.88044502
8353 9 4 0.0 -7.62963836 59.64229961 54.68105502
8387 9 2 0.0 -10.10358836 67.87540961 54.16081502
8388 9 2 0.0 -9.38216836 67.48151961 53.04072502
8389 9 2 0.0 -9.40396836 66.16561961 52.58875502
8390 9 2 0.0 -10.15348836 65.19995961 53.26253502
8391 9 2 0.0 -10.90957836 65.58760961 54.37419502
8392 9 2 0.0 -10.87880836 66.91511961 54.82743502
8393 9 2 0.0 -9.30074836 63.24128961 51.97809502
8394 9 1 0.0 -9.56968836 61.74749961 51.79629502
8395 9 2 0.0 -9.20469836 59.70843961 53.19843502
8396 9 2 0.0 -10.27016836 58.98562961 52.65991502
8397 9 2 0.0 -10.56865836 57.70330961 53.12519502
8399 9 2 0.0 -8.75117836 57.81635961 54.68115502
8400 9 2 0.0 -8.45234836 59.10088961 54.21538502
8422 9 2 0.0 -10.09604836 69.36537961 54.15810502
8424 9 6 0.0 -10.17987836 63.84639961 52.86681502
8425 9 6 0.0 -8.95480836 61.04379961 52.91881502
8431 9 7 0.0 -8.33169836 63.77198961 51.43977502
8435 9 8 0.0 -10.91543836 69.87103961 54.98185502
8437 9 8 0.0 -9.27157836 69.85970961 53.33255502
8449 9 3 0.0 -8.63399836 68.36868961 52.36403502

Bonds

1 3 8114 8399
2 3 8344 8389
3 3 8345 8391
4 3 8346 8392
5 3 8351 8396
6 3 8353 8400
7 4 8347 8424
8 4 8350 8425
9 5 8348 8394
10 5 8349 8394
11 7 8160 8181
12 7 8387 8422
13 8 8160 8397
14 8 8160 8399
15 8 8387 8392
16 8 8387 8388
17 8 8388 8389
18 8 8389 8390
19 8 8390 8391
20 8 8391 8392
21 8 8395 8400
22 8 8395 8396
23 8 8396 8397
24 8 8399 8400
25 9 8210 8397
26 9 8388 8449
27 10 8390 8424
28 10 8393 8424
29 10 8395 8425
30 11 8393 8431
31 12 8393 8394
32 13 8394 8425
33 15 8181 8205
34 15 8181 8206
35 15 8422 8437
36 15 8422 8435

Angles

1 3 8397 8160 8181
2 3 8399 8160 8181
3 3 8392 8387 8422
4 3 8388 8387 8422
5 4 8397 8160 8399
6 4 8392 8387 8388
7 4 8387 8388 8389
8 4 8388 8389 8390
9 4 8389 8390 8391
10 4 8390 8391 8392
11 4 8387 8392 8391
12 4 8400 8395 8396
13 4 8395 8396 8397
14 4 8160 8397 8396
15 4 8160 8399 8400
16 4 8395 8400 8399
17 5 8387 8388 8449
18 5 8389 8388 8449
19 5 8160 8397 8210
20 5 8396 8397 8210
21 6 8388 8389 8344
22 6 8390 8389 8344
23 6 8390 8391 8345
24 6 8392 8391 8345
25 6 8387 8392 8346
26 6 8391 8392 8346
27 6 8395 8396 8351
28 6 8397 8396 8351
29 6 8160 8399 8114
30 6 8400 8399 8114
31 6 8395 8400 8353
32 6 8399 8400 8353
33 7 8389 8390 8424
34 7 8391 8390 8424
35 7 8400 8395 8425
36 7 8396 8395 8425
37 8 8424 8393 8431
38 9 8394 8393 8424
39 10 8394 8393 8431
40 11 8348 8394 8349
41 12 8393 8394 8348
42 12 8393 8394 8349
43 13 8348 8394 8425
44 13 8349 8394 8425
45 14 8393 8394 8425
46 18 8160 8181 8205
47 18 8160 8181 8206
48 18 8387 8422 8437
49 18 8387 8422 8435
50 19 8205 8181 8206
51 19 8437 8422 8435
52 20 8390 8424 8347
53 20 8393 8424 8347
54 20 8395 8425 8350
55 21 8390 8424 8393
56 22 8394 8425 8350
57 23 8394 8425 8395

Dihedrals

1 1 8397 8160 8181 8205
2 1 8397 8160 8181 8206
3 1 8399 8160 8181 8205
4 1 8399 8160 8181 8206
5 1 8392 8387 8422 8437
6 1 8392 8387 8422 8435
7 1 8388 8387 8422 8437
8 1 8388 8387 8422 8435
9 2 8399 8160 8397 8210
10 2 8399 8160 8397 8396
11 2 8181 8160 8397 8210
12 2 8181 8160 8397 8396
13 2 8397 8160 8399 8114
14 2 8397 8160 8399 8400
15 2 8181 8160 8399 8114
16 2 8181 8160 8399 8400
17 2 8388 8387 8392 8346
18 2 8388 8387 8392 8391
19 2 8422 8387 8392 8346
20 2 8422 8387 8392 8391
21 2 8392 8387 8388 8449
22 2 8392 8387 8388 8389
23 2 8422 8387 8388 8449
24 2 8422 8387 8388 8389
25 2 8387 8388 8389 8344
26 2 8387 8388 8389 8390
27 2 8449 8388 8389 8344
28 2 8449 8388 8389 8390
29 2 8344 8389 8390 8391
30 2 8344 8389 8390 8424
31 2 8388 8389 8390 8391
32 2 8388 8389 8390 8424
33 2 8389 8390 8391 8345
34 2 8389 8390 8391 8392
35 2 8424 8390 8391 8345
36 2 8424 8390 8391 8392
37 2 8345 8391 8392 8346
38 2 8345 8391 8392 8387
39 2 8390 8391 8392 8346
40 2 8390 8391 8392 8387
41 2 8425 8395 8400 8353
42 2 8425 8395 8400 8399
43 2 8396 8395 8400 8353
44 2 8396 8395 8400 8399
45 2 8400 8395 8396 8351
46 2 8400 8395 8396 8397
47 2 8425 8395 8396 8351
48 2 8425 8395 8396 8397
49 2 8351 8396 8397 8160
50 2 8351 8396 8397 8210
51 2 8395 8396 8397 8160
52 2 8395 8396 8397 8210
53 2 8114 8399 8400 8353
54 2 8114 8399 8400 8395
55 2 8160 8399 8400 8353
56 2 8160 8399 8400 8395
57 3 8389 8390 8424 8347
58 3 8389 8390 8424 8393
59 3 8391 8390 8424 8347
60 3 8391 8390 8424 8393
61 3 8431 8393 8424 8347
62 3 8431 8393 8424 8390
63 3 8394 8393 8424 8347
64 3 8394 8393 8424 8390
65 3 8400 8395 8425 8350
66 3 8400 8395 8425 8394
67 3 8396 8395 8425 8350
68 3 8396 8395 8425 8394
69 4 8424 8393 8394 8348
70 4 8424 8393 8394 8349
71 4 8424 8393 8394 8425
72 4 8431 8393 8394 8348
73 4 8431 8393 8394 8349
74 4 8431 8393 8394 8425
75 5 8348 8394 8425 8350
76 5 8348 8394 8425 8395
77 5 8349 8394 8425 8350
78 5 8349 8394 8425 8395
79 5 8393 8394 8425 8350
80 5 8393 8394 8425 8395

Impropers

1 1 8160 8397 8399 8181
2 1 8387 8392 8388 8422
3 1 8388 8387 8449 8389
4 1 8389 8344 8388 8390
5 1 8390 8389 8391 8424
6 1 8391 8345 8390 8392
7 1 8392 8346 8387 8391
8 1 8393 8424 8431 8394
9 1 8395 8400 8425 8396
10 1 8396 8351 8395 8397
11 1 8397 8160 8210 8396
12 1 8399 8114 8160 8400
13 1 8400 8353 8395 8399
14 2 8181 8160 8205 8206
15 2 8422 8387 8437 8435
16 3 8424 8347 8390 8393
17 3 8425 8350 8394 8395
