# LAMMPS data file written by OVITO Basic 3.2.1
43 atoms
45 bonds
70 angles
100 dihedrals
19 impropers
10 atom types
15 bond types
27 angle types
7 dihedral types
3 improper types
-42.6572024 86.29286374 xlo xhi
-41.64391961 82.71779509 ylo yhi
-42.71488502 85.42977004 zlo zhi
-1.34497266 0.36651372 0.57004413 xy xz yz

Masses

1 12.0107  # C1
2 12.0107  # C2
3 18.9984032  # F
4 1.00794  # H
5 14.0067  # N1
6 14.0067  # N2
7 15.9994  # O1
8 15.9994  # O2
9 15.9994  # O3
10 65.38  # Zn

Atoms  # full

8235 9 4 0.0 -7.41493836 51.27412961 58.20671502
8236 9 4 0.0 -7.02502836 50.41525961 59.57893502
8237 9 4 0.0 -7.70305836 51.16733961 61.57888502
8238 9 4 0.0 -8.29349836 50.44724961 63.61664502
8239 9 4 0.0 -8.29654836 50.46345961 66.04114502
8240 9 4 0.0 -7.61860836 51.25031961 68.10001502
8241 9 4 0.0 -7.95266836 51.07014961 70.48955502
8242 9 4 0.0 -11.30140836 53.47191961 67.74419502
8243 9 4 0.0 -12.08217836 53.29164961 71.21505502
8244 9 4 0.0 -12.64142836 53.69447961 69.67759502
8245 9 4 0.0 -10.25158836 54.29532961 65.88500502
8246 9 4 0.0 -12.13351836 54.29010961 61.64644502
8247 9 4 0.0 -11.24082836 53.84795961 63.00399502
8248 9 4 0.0 -11.96475836 53.42160961 58.32331502
8249 9 4 0.0 -12.45189836 54.06993961 59.80074502
8282 9 2 0.0 -8.72300836 51.54838961 59.73393502
8283 9 2 0.0 -9.84566836 52.14421961 59.12463502
8284 9 2 0.0 -10.77461836 52.87996961 59.89802502
8285 9 2 0.0 -10.57855836 52.99019961 61.30467502
8286 9 2 0.0 -9.47880836 52.34398961 61.94284502
8287 9 2 0.0 -8.56772836 51.64540961 61.12362502
8288 9 2 0.0 -9.29532836 52.36008961 63.42232502
8289 9 2 0.0 -8.70621836 51.31164961 64.12519502
8290 9 2 0.0 -8.71087836 51.32522961 65.52369502
8291 9 2 0.0 -9.29840836 52.37907961 66.23220502
8292 9 2 0.0 -9.44042836 52.36132961 67.70414502
8293 9 2 0.0 -8.50560836 51.71409961 68.52907502
8294 9 2 0.0 -8.68475836 51.63278961 69.91525502
8295 9 2 0.0 -9.80130836 52.22086961 70.52271502
8296 9 2 0.0 -10.76782836 52.86475961 69.72540502
8297 9 2 0.0 -10.55135836 52.95048961 68.33772502
8298 9 2 0.0 -9.79555836 53.41347961 65.44131502
8299 9 2 0.0 -9.84843836 52.14118961 57.63464502
8301 9 2 0.0 -9.79885836 52.22356961 72.01271502
8307 9 5 0.0 -7.79668836 50.75807961 59.00702502
8308 9 5 0.0 -11.82493836 53.61649961 70.27659502
8309 9 6 0.0 -9.79963836 53.43462961 64.08287502
8310 9 5 0.0 -11.62190836 53.54829961 62.09907502
8311 9 5 0.0 -12.01635836 53.28649961 59.33806502
8314 9 8 0.0 -8.97890836 51.39700961 72.51285502
8317 9 8 0.0 -10.61715836 53.05192961 72.51255502
8320 9 8 0.0 -10.67670836 51.32117961 57.15109502
8322 9 8 0.0 -9.02178836 52.95942961 57.14540502

Bonds

1 3 8237 8287
2 3 8238 8289
3 3 8239 8290
4 3 8240 8293
5 3 8241 8294
6 3 8242 8297
7 3 8245 8298
8 6 8235 8307
9 6 8236 8307
10 6 8243 8308
11 6 8244 8308
12 6 8246 8310
13 6 8247 8310
14 6 8248 8311
15 6 8249 8311
16 7 8283 8299
17 7 8286 8288
18 7 8291 8292
19 7 8295 8301
20 8 8282 8287
21 8 8282 8283
22 8 8283 8284
23 8 8284 8285
24 8 8285 8286
25 8 8286 8287
26 8 8288 8289
27 8 8289 8290
28 8 8290 8291
29 8 8291 8298
30 8 8292 8297
31 8 8292 8293
32 8 8293 8294
33 8 8294 8295
34 8 8295 8296
35 8 8296 8297
36 10 8288 8309
37 10 8298 8309
38 14 8282 8307
39 14 8284 8311
40 14 8285 8310
41 14 8296 8308
42 15 8299 8322
43 15 8299 8320
44 15 8301 8314
45 15 8301 8317

Angles

1 3 8282 8283 8299
2 3 8299 8283 8284
3 3 8285 8286 8288
4 3 8287 8286 8288
5 3 8286 8288 8289
6 3 8290 8291 8292
7 3 8292 8291 8298
8 3 8291 8292 8297
9 3 8291 8292 8293
10 3 8294 8295 8301
11 3 8301 8295 8296
12 4 8287 8282 8283
13 4 8282 8283 8284
14 4 8283 8284 8285
15 4 8284 8285 8286
16 4 8285 8286 8287
17 4 8282 8287 8286
18 4 8288 8289 8290
19 4 8289 8290 8291
20 4 8290 8291 8298
21 4 8297 8292 8293
22 4 8292 8293 8294
23 4 8293 8294 8295
24 4 8294 8295 8296
25 4 8295 8296 8297
26 4 8292 8297 8296
27 6 8282 8287 8237
28 6 8286 8287 8237
29 6 8288 8289 8238
30 6 8290 8289 8238
31 6 8289 8290 8239
32 6 8291 8290 8239
33 6 8292 8293 8240
34 6 8294 8293 8240
35 6 8293 8294 8241
36 6 8295 8294 8241
37 6 8292 8297 8242
38 6 8296 8297 8242
39 6 8291 8298 8245
40 7 8289 8288 8309
41 7 8291 8298 8309
42 15 8287 8282 8307
43 15 8283 8282 8307
44 15 8283 8284 8311
45 15 8285 8284 8311
46 15 8284 8285 8310
47 15 8286 8285 8310
48 15 8295 8296 8308
49 15 8297 8296 8308
50 16 8286 8288 8309
51 17 8245 8298 8309
52 18 8283 8299 8322
53 18 8283 8299 8320
54 18 8295 8301 8314
55 18 8295 8301 8317
56 19 8322 8299 8320
57 19 8314 8301 8317
58 21 8288 8309 8298
59 24 8235 8307 8236
60 24 8243 8308 8244
61 24 8246 8310 8247
62 24 8248 8311 8249
63 25 8282 8307 8235
64 25 8282 8307 8236
65 25 8296 8308 8243
66 25 8296 8308 8244
67 25 8285 8310 8246
68 25 8285 8310 8247
69 25 8284 8311 8248
70 25 8284 8311 8249

Dihedrals

1 1 8282 8283 8299 8322
2 1 8282 8283 8299 8320
3 1 8284 8283 8299 8322
4 1 8284 8283 8299 8320
5 1 8285 8286 8288 8309
6 1 8285 8286 8288 8289
7 1 8287 8286 8288 8309
8 1 8287 8286 8288 8289
9 1 8290 8291 8292 8297
10 1 8290 8291 8292 8293
11 1 8298 8291 8292 8297
12 1 8298 8291 8292 8293
13 1 8294 8295 8301 8314
14 1 8294 8295 8301 8317
15 1 8296 8295 8301 8314
16 1 8296 8295 8301 8317
17 2 8307 8282 8287 8237
18 2 8307 8282 8287 8286
19 2 8283 8282 8287 8237
20 2 8283 8282 8287 8286
21 2 8307 8282 8283 8299
22 2 8307 8282 8283 8284
23 2 8287 8282 8283 8299
24 2 8287 8282 8283 8284
25 2 8282 8283 8284 8311
26 2 8282 8283 8284 8285
27 2 8299 8283 8284 8311
28 2 8299 8283 8284 8285
29 2 8283 8284 8285 8310
30 2 8283 8284 8285 8286
31 2 8311 8284 8285 8310
32 2 8311 8284 8285 8286
33 2 8284 8285 8286 8287
34 2 8284 8285 8286 8288
35 2 8310 8285 8286 8287
36 2 8310 8285 8286 8288
37 2 8285 8286 8287 8237
38 2 8285 8286 8287 8282
39 2 8288 8286 8287 8237
40 2 8288 8286 8287 8282
41 2 8286 8288 8289 8238
42 2 8286 8288 8289 8290
43 2 8309 8288 8289 8238
44 2 8309 8288 8289 8290
45 2 8238 8289 8290 8239
46 2 8238 8289 8290 8291
47 2 8288 8289 8290 8239
48 2 8288 8289 8290 8291
49 2 8239 8290 8291 8292
50 2 8239 8290 8291 8298
51 2 8289 8290 8291 8292
52 2 8289 8290 8291 8298
53 2 8290 8291 8298 8245
54 2 8290 8291 8298 8309
55 2 8292 8291 8298 8245
56 2 8292 8291 8298 8309
57 2 8291 8292 8297 8242
58 2 8291 8292 8297 8296
59 2 8293 8292 8297 8242
60 2 8293 8292 8297 8296
61 2 8291 8292 8293 8240
62 2 8291 8292 8293 8294
63 2 8297 8292 8293 8240
64 2 8297 8292 8293 8294
65 2 8240 8293 8294 8241
66 2 8240 8293 8294 8295
67 2 8292 8293 8294 8241
68 2 8292 8293 8294 8295
69 2 8241 8294 8295 8301
70 2 8241 8294 8295 8296
71 2 8293 8294 8295 8301
72 2 8293 8294 8295 8296
73 2 8294 8295 8296 8297
74 2 8294 8295 8296 8308
75 2 8301 8295 8296 8297
76 2 8301 8295 8296 8308
77 2 8295 8296 8297 8242
78 2 8295 8296 8297 8292
79 2 8308 8296 8297 8242
80 2 8308 8296 8297 8292
81 3 8286 8288 8309 8298
82 3 8289 8288 8309 8298
83 3 8245 8298 8309 8288
84 3 8291 8298 8309 8288
85 6 8287 8282 8307 8235
86 6 8287 8282 8307 8236
87 6 8283 8282 8307 8235
88 6 8283 8282 8307 8236
89 6 8283 8284 8311 8248
90 6 8283 8284 8311 8249
91 6 8285 8284 8311 8248
92 6 8285 8284 8311 8249
93 6 8284 8285 8310 8246
94 6 8284 8285 8310 8247
95 6 8286 8285 8310 8246
96 6 8286 8285 8310 8247
97 6 8295 8296 8308 8243
98 6 8295 8296 8308 8244
99 6 8297 8296 8308 8243
100 6 8297 8296 8308 8244

Impropers

1 1 8282 8307 8287 8283
2 1 8283 8282 8299 8284
3 1 8284 8283 8311 8285
4 1 8285 8284 8310 8286
5 1 8286 8285 8287 8288
6 1 8287 8237 8282 8286
7 1 8288 8286 8309 8289
8 1 8289 8238 8288 8290
9 1 8290 8239 8289 8291
10 1 8291 8290 8292 8298
11 1 8292 8291 8297 8293
12 1 8293 8240 8292 8294
13 1 8294 8241 8293 8295
14 1 8295 8294 8301 8296
15 1 8296 8295 8297 8308
16 1 8297 8242 8292 8296
17 1 8298 8245 8291 8309
18 2 8299 8283 8322 8320
19 2 8301 8295 8314 8317
