# LAMMPS data file written by OVITO Basic 3.2.1
50 atoms
52 bonds
88 angles
114 dihedrals
19 impropers
10 atom types
18 bond types
33 angle types
8 dihedral types
3 improper types
-36.92644402 70.34601938 xlo xhi
-40.70601029 74.84078473 ylo yhi
-38.78164275 77.5632855 zlo zhi
2.36657706 1.1402916 6.57123585 xy xz yz

Masses

1 12.0107  # C
2 12.0107  # C
3 35.453  # Cl
4 63.546  # Cu
5 18.9984032  # F
6 1.00794  # H
7 14.0067  # N
8 14.0067  # N
9 15.9994  # O
10 15.9994  # O

Atoms  # full

26988 27 2 0.0 46.4825622 51.9100939 65.6654755
26998 27 10 0.0 47.5949722 51.9552739 66.1626655
27039 27 6 0.0 47.337055 47.94614195 54.65171275
27040 27 6 0.0 46.862705 48.49130195 56.24717275
27041 27 6 0.0 48.503255 48.82579195 55.58898275
27042 27 6 0.0 47.411905 49.28104195 52.81892275
27046 27 6 0.0 48.363425 50.29161195 59.68136275
27049 27 6 0.0 48.634595 51.74971195 64.09652275
27050 27 6 0.0 49.910195 52.10541195 62.29217275
27051 27 6 0.0 49.239345 52.49712195 60.71849275
27052 27 6 0.0 49.526055 50.78852195 61.21717275
27092 27 1 0.0 47.438985 48.77439195 55.36285275
27093 27 2 0.0 46.928765 50.06281195 54.76015275
27094 27 2 0.0 46.917645 50.09157195 53.35221275
27095 27 2 0.0 46.297065 51.11685195 52.63451275
27099 27 2 0.0 46.462595 51.18944195 55.50249275
27100 27 2 0.0 46.607825 51.26951195 57.00310275
27101 27 2 0.0 47.702765 50.87159195 57.75466275
27102 27 2 0.0 47.587655 50.82071195 59.14837275
27103 27 2 0.0 46.571955 51.49182195 59.83694275
27104 27 2 0.0 46.599095 51.58293195 61.33059275
27107 27 2 0.0 46.481545 51.77400195 64.18169275
27108 27 2 0.0 47.710225 51.75088195 63.52223275
27109 27 2 0.0 47.787725 51.70582195 62.11093275
27110 27 1 0.0 49.185335 51.77640195 61.53906275
27114 27 2 0.0 46.295985 50.98076195 51.15076275
27124 27 3 0.0 49.302495 50.65967195 57.13453275
27127 27 10 0.0 47.407685 50.93473195 50.65200275
27300 27 6 0.0 45.41156622 54.19893029 52.65576275
27301 27 6 0.0 43.89351622 53.32874029 53.04189275
27311 27 6 0.0 44.67245622 53.97329029 58.79816275
27312 27 6 0.0 44.87427622 54.23415029 54.82426275
27313 27 6 0.0 45.91928622 53.87923029 56.16214275
27353 27 1 0.0 44.89189622 53.23736029 52.59761275
27369 27 1 0.0 45.19191622 53.42370029 55.48309275
27516 27 10 0.0 45.3708244 51.9561539 66.1642255
27555 27 6 0.0 44.7102072 53.01640195 51.54514275
27559 27 6 0.0 44.4364272 51.38071195 61.51764275
27560 27 6 0.0 44.3442672 51.65097195 63.93084275
27565 27 6 0.0 44.7124972 53.43863195 60.45595275
27566 27 6 0.0 43.5726172 52.68055195 59.31519275
27570 27 6 0.0 44.2936072 53.10712195 56.02350275
27608 27 2 0.0 45.6824772 52.17384195 53.32856275
27610 27 2 0.0 45.8083672 52.23786195 54.75512275
27617 27 2 0.0 45.3800172 51.52391195 62.04403275
27618 27 2 0.0 45.3141272 51.65529195 63.43556275
27623 27 2 0.0 45.6048872 52.06867195 58.99971275
27624 27 1 0.0 44.5831872 53.08304195 59.43371275
27635 27 8 0.0 45.5592072 51.83436195 57.65271275
27643 27 10 0.0 45.1835372 50.93560195 50.65357275

Bonds

1 4 27042 27094
2 4 27046 27102
3 4 27049 27108
4 4 27559 27617
5 4 27560 27618
6 5 27039 27092
7 5 27040 27092
8 5 27041 27092
9 5 27050 27110
10 5 27051 27110
11 5 27052 27110
12 5 27300 27353
13 5 27301 27353
14 5 27311 27624
15 5 27312 27369
16 5 27313 27369
17 5 27353 27555
18 5 27369 27570
19 5 27565 27624
20 5 27566 27624
21 8 27093 27099
22 8 27093 27094
23 8 27094 27095
24 8 27095 27608
25 8 27099 27610
26 8 27100 27101
27 8 27101 27102
28 8 27102 27103
29 8 27103 27623
30 8 27104 27109
31 8 27104 27617
32 8 27107 27618
33 8 27107 27108
34 8 27108 27109
35 8 27608 27610
36 8 27617 27618
37 10 27100 27635
38 10 27623 27635
39 11 26988 27107
40 11 27095 27114
41 11 27099 27100
42 11 27103 27104
43 12 27092 27093
44 12 27109 27110
45 12 27353 27608
46 12 27369 27610
47 12 27623 27624
48 16 27101 27124
49 17 26988 26998
50 17 26988 27516
51 17 27114 27127
52 17 27114 27643

Angles

1 6 27099 27093 27094
2 6 27093 27094 27095
3 6 27094 27095 27608
4 6 27093 27099 27610
5 6 27100 27101 27102
6 6 27101 27102 27103
7 6 27102 27103 27623
8 6 27109 27104 27617
9 6 27618 27107 27108
10 6 27107 27108 27109
11 6 27104 27109 27108
12 6 27095 27608 27610
13 6 27099 27610 27608
14 6 27104 27617 27618
15 6 27107 27618 27617
16 7 27093 27094 27042
17 7 27095 27094 27042
18 7 27101 27102 27046
19 7 27103 27102 27046
20 7 27107 27108 27049
21 7 27109 27108 27049
22 7 27104 27617 27559
23 7 27618 27617 27559
24 7 27107 27618 27560
25 7 27617 27618 27560
26 9 27101 27100 27635
27 9 27103 27623 27635
28 10 27094 27095 27114
29 10 27114 27095 27608
30 10 27093 27099 27100
31 10 27610 27099 27100
32 10 27099 27100 27101
33 10 27102 27103 27104
34 10 27104 27103 27623
35 10 27103 27104 27109
36 10 27103 27104 27617
37 10 26988 27107 27618
38 10 26988 27107 27108
39 11 27039 27092 27040
40 11 27039 27092 27041
41 11 27040 27092 27041
42 11 27050 27110 27051
43 11 27050 27110 27052
44 11 27051 27110 27052
45 11 27300 27353 27301
46 11 27300 27353 27555
47 11 27301 27353 27555
48 11 27312 27369 27313
49 11 27312 27369 27570
50 11 27313 27369 27570
51 11 27311 27624 27565
52 11 27311 27624 27566
53 11 27565 27624 27566
54 12 27093 27092 27039
55 12 27093 27092 27040
56 12 27093 27092 27041
57 12 27109 27110 27050
58 12 27109 27110 27051
59 12 27109 27110 27052
60 12 27608 27353 27300
61 12 27608 27353 27301
62 12 27608 27353 27555
63 12 27610 27369 27312
64 12 27610 27369 27313
65 12 27610 27369 27570
66 12 27623 27624 27311
67 12 27623 27624 27565
68 12 27623 27624 27566
69 13 27092 27093 27099
70 13 27092 27093 27094
71 13 27110 27109 27104
72 13 27110 27109 27108
73 13 27353 27608 27095
74 13 27353 27608 27610
75 13 27369 27610 27099
76 13 27369 27610 27608
77 13 27624 27623 27103
78 18 27099 27100 27635
79 19 27100 27101 27124
80 19 27102 27101 27124
81 20 27624 27623 27635
82 21 27107 26988 26998
83 21 27107 26988 27516
84 21 27095 27114 27127
85 21 27095 27114 27643
86 22 26998 26988 27516
87 22 27127 27114 27643
88 24 27100 27635 27623

Dihedrals

1 1 27092 27093 27099 27610
2 1 27092 27093 27099 27100
3 1 27094 27093 27099 27610
4 1 27094 27093 27099 27100
5 1 27092 27093 27094 27042
6 1 27092 27093 27094 27095
7 1 27099 27093 27094 27042
8 1 27099 27093 27094 27095
9 1 27042 27094 27095 27114
10 1 27042 27094 27095 27608
11 1 27093 27094 27095 27114
12 1 27093 27094 27095 27608
13 1 27094 27095 27608 27353
14 1 27094 27095 27608 27610
15 1 27114 27095 27608 27353
16 1 27114 27095 27608 27610
17 1 27093 27099 27610 27369
18 1 27093 27099 27610 27608
19 1 27100 27099 27610 27369
20 1 27100 27099 27610 27608
21 1 27099 27100 27101 27102
22 1 27099 27100 27101 27124
23 1 27635 27100 27101 27102
24 1 27635 27100 27101 27124
25 1 27100 27101 27102 27046
26 1 27100 27101 27102 27103
27 1 27124 27101 27102 27046
28 1 27124 27101 27102 27103
29 1 27046 27102 27103 27104
30 1 27046 27102 27103 27623
31 1 27101 27102 27103 27104
32 1 27101 27102 27103 27623
33 1 27102 27103 27623 27635
34 1 27102 27103 27623 27624
35 1 27104 27103 27623 27635
36 1 27104 27103 27623 27624
37 1 27103 27104 27109 27108
38 1 27103 27104 27109 27110
39 1 27617 27104 27109 27108
40 1 27617 27104 27109 27110
41 1 27103 27104 27617 27559
42 1 27103 27104 27617 27618
43 1 27109 27104 27617 27559
44 1 27109 27104 27617 27618
45 1 26988 27107 27618 27560
46 1 26988 27107 27618 27617
47 1 27108 27107 27618 27560
48 1 27108 27107 27618 27617
49 1 26988 27107 27108 27049
50 1 26988 27107 27108 27109
51 1 27618 27107 27108 27049
52 1 27618 27107 27108 27109
53 1 27049 27108 27109 27104
54 1 27049 27108 27109 27110
55 1 27107 27108 27109 27104
56 1 27107 27108 27109 27110
57 1 27095 27608 27610 27099
58 1 27095 27608 27610 27369
59 1 27353 27608 27610 27099
60 1 27353 27608 27610 27369
61 1 27104 27617 27618 27107
62 1 27104 27617 27618 27560
63 1 27559 27617 27618 27107
64 1 27559 27617 27618 27560
65 2 27099 27100 27635 27623
66 2 27101 27100 27635 27623
67 2 27103 27623 27635 27100
68 2 27624 27623 27635 27100
69 3 26998 26988 27107 27618
70 3 26998 26988 27107 27108
71 3 27516 26988 27107 27618
72 3 27516 26988 27107 27108
73 3 27094 27095 27114 27127
74 3 27094 27095 27114 27643
75 3 27608 27095 27114 27127
76 3 27608 27095 27114 27643
77 3 27093 27099 27100 27101
78 3 27093 27099 27100 27635
79 3 27610 27099 27100 27101
80 3 27610 27099 27100 27635
81 3 27102 27103 27104 27109
82 3 27102 27103 27104 27617
83 3 27623 27103 27104 27109
84 3 27623 27103 27104 27617
85 4 27039 27092 27093 27099
86 4 27039 27092 27093 27094
87 4 27040 27092 27093 27099
88 4 27040 27092 27093 27094
89 4 27041 27092 27093 27099
90 4 27041 27092 27093 27094
91 4 27104 27109 27110 27050
92 4 27104 27109 27110 27051
93 4 27104 27109 27110 27052
94 4 27108 27109 27110 27050
95 4 27108 27109 27110 27051
96 4 27108 27109 27110 27052
97 4 27300 27353 27608 27095
98 4 27300 27353 27608 27610
99 4 27301 27353 27608 27095
100 4 27301 27353 27608 27610
101 4 27555 27353 27608 27095
102 4 27555 27353 27608 27610
103 4 27312 27369 27610 27099
104 4 27312 27369 27610 27608
105 4 27313 27369 27610 27099
106 4 27313 27369 27610 27608
107 4 27570 27369 27610 27099
108 4 27570 27369 27610 27608
109 4 27103 27623 27624 27311
110 4 27103 27623 27624 27565
111 4 27103 27623 27624 27566
112 4 27635 27623 27624 27311
113 4 27635 27623 27624 27565
114 4 27635 27623 27624 27566

Impropers

1 1 27093 27092 27099 27094
2 1 27094 27042 27093 27095
3 1 27095 27094 27114 27608
4 1 27099 27093 27610 27100
5 1 27100 27099 27101 27635
6 1 27101 27100 27102 27124
7 1 27102 27046 27101 27103
8 1 27103 27102 27104 27623
9 1 27104 27103 27109 27617
10 1 27107 26988 27618 27108
11 1 27108 27049 27107 27109
12 1 27109 27104 27108 27110
13 1 27608 27095 27353 27610
14 1 27610 27099 27369 27608
15 1 27617 27104 27559 27618
16 1 27618 27107 27560 27617
17 1 27623 27103 27635 27624
18 2 26988 27107 26998 27516
19 2 27114 27095 27127 27643
