# LAMMPS data file written by OVITO Basic 3.2.1
46 atoms
47 bonds
78 angles
100 dihedrals
17 impropers
10 atom types
18 bond types
33 angle types
8 dihedral types
3 improper types
-36.92644402 70.34601938 xlo xhi
-40.70601029 74.84078473 ylo yhi
-38.78164275 77.5632855 zlo zhi
2.36657706 1.1402916 6.57123585 xy xz yz

Masses

1 12.0107  # C
2 12.0107  # C
3 35.453  # Cl
4 63.546  # Cu
5 18.9984032  # F
6 1.00794  # H
7 14.0067  # N
8 14.0067  # N
9 15.9994  # O
10 15.9994  # O

Atoms  # full

26643 27 6 0.0 46.63186402 64.49350029 44.79589275
26764 27 6 0.0 47.02608402 67.89994029 46.50473275
26765 27 6 0.0 46.81438402 66.67196029 45.30399275
26766 27 6 0.0 48.41845402 66.88820029 46.05289275
26769 27 6 0.0 47.39322402 63.01082029 45.35289275
26770 27 6 0.0 48.35073402 64.46910029 45.29704275
26772 27 6 0.0 47.01591402 61.78468029 46.85737275
26775 27 6 0.0 48.33780402 55.37417029 49.18229275
26780 27 6 0.0 48.02739402 59.05566029 49.46900275
26781 27 6 0.0 49.03127402 57.90213029 48.57233275
26782 27 6 0.0 48.69696402 57.67947029 50.30779275
26819 27 1 0.0 47.33934402 66.88831029 46.23971275
26820 27 2 0.0 46.99841402 65.86517029 47.29902275
26821 27 2 0.0 46.68706402 66.22861029 48.62752275
26824 27 2 0.0 46.49279402 63.49402029 47.84987275
26825 27 2 0.0 46.95110402 64.47931029 46.92928275
26826 27 1 0.0 47.34698402 64.08886029 45.51783275
26829 27 2 0.0 47.08296402 57.13067029 49.01409275
26830 27 2 0.0 47.32557402 55.74375029 49.00065275
26831 27 2 0.0 46.29593402 54.82484029 48.79789275
26835 27 1 0.0 48.26753402 57.99835029 49.35149275
26859 27 2 0.0 46.29520402 53.33728029 48.71248275
26861 27 2 0.0 46.68769402 67.71617029 48.71293275
26869 27 9 0.0 47.01273402 59.66484029 47.22169275
26873 27 10 0.0 47.79997402 68.21496029 48.74076275
27128 27 10 0.0 47.407035 52.83764195 48.68307275
27279 27 6 0.0 46.04490622 65.51022029 50.56416275
27280 27 6 0.0 45.84329622 63.18434029 49.89535275
27285 27 6 0.0 44.79110622 61.39386029 48.60447275
27286 27 6 0.0 44.49302622 59.22675029 48.98499275
27288 27 6 0.0 44.16733622 54.58645029 48.50772275
27289 27 6 0.0 42.68715622 56.27182029 47.96187275
27290 27 6 0.0 43.29361622 57.85188029 47.48972275
27291 27 6 0.0 42.84650622 57.53544029 49.19442275
27334 27 2 0.0 46.29869622 65.23720029 49.53949275
27335 27 2 0.0 46.18194622 63.90064029 49.15170275
27339 27 2 0.0 46.13632622 59.91809029 48.04703275
27340 27 2 0.0 45.77122622 57.60344029 48.78400275
27344 27 2 0.0 44.98916622 55.29306029 48.61243275
27345 27 2 0.0 44.72012622 56.67277029 48.58481275
27346 27 1 0.0 43.30616622 57.11202029 48.29754275
27376 27 7 0.0 46.22886622 62.17739029 47.38942275
27377 27 8 0.0 45.75012622 61.22973029 48.32333275
27378 27 8 0.0 45.45758622 58.98783029 48.81409275
27389 27 10 0.0 45.57584622 68.21584029 48.74232275
27642 27 10 0.0 45.1829072 52.83851195 48.68463275

Bonds

1 4 26775 26830
2 4 27279 27334
3 4 27280 27335
4 4 27288 27344
5 5 26643 26826
6 5 26764 26819
7 5 26765 26819
8 5 26766 26819
9 5 26769 26826
10 5 26770 26826
11 5 26780 26835
12 5 26781 26835
13 5 26782 26835
14 5 27289 27346
15 5 27290 27346
16 5 27291 27346
17 6 26772 27376
18 7 27285 27377
19 7 27286 27378
20 8 26820 26825
21 8 26820 26821
22 8 26821 27334
23 8 26824 27335
24 8 26824 26825
25 8 26829 27340
26 8 26829 26830
27 8 26830 26831
28 8 26831 27344
29 8 27334 27335
30 8 27340 27345
31 8 27344 27345
32 10 27339 27377
33 10 27339 27378
34 11 26821 26861
35 11 26831 26859
36 12 26819 26820
37 12 26825 26826
38 12 26829 26835
39 12 27345 27346
40 13 26824 27376
41 14 26869 27339
42 15 27340 27378
43 17 26859 27128
44 17 26859 27642
45 17 26861 26873
46 17 26861 27389
47 18 27376 27377

Angles

1 6 26825 26820 26821
2 6 26820 26821 27334
3 6 27335 26824 26825
4 6 26820 26825 26824
5 6 27340 26829 26830
6 6 26829 26830 26831
7 6 26830 26831 27344
8 6 26821 27334 27335
9 6 26824 27335 27334
10 6 26829 27340 27345
11 6 26831 27344 27345
12 6 27340 27345 27344
13 7 26829 26830 26775
14 7 26831 26830 26775
15 7 26821 27334 27279
16 7 27335 27334 27279
17 7 26824 27335 27280
18 7 27334 27335 27280
19 7 26831 27344 27288
20 7 27345 27344 27288
21 10 26820 26821 26861
22 10 26861 26821 27334
23 10 26830 26831 26859
24 10 26859 26831 27344
25 11 26764 26819 26765
26 11 26764 26819 26766
27 11 26765 26819 26766
28 11 26643 26826 26769
29 11 26643 26826 26770
30 11 26769 26826 26770
31 11 26780 26835 26781
32 11 26780 26835 26782
33 11 26781 26835 26782
34 11 27289 27346 27290
35 11 27289 27346 27291
36 11 27290 27346 27291
37 12 26820 26819 26764
38 12 26820 26819 26765
39 12 26820 26819 26766
40 12 26825 26826 26643
41 12 26825 26826 26769
42 12 26825 26826 26770
43 12 26829 26835 26780
44 12 26829 26835 26781
45 12 26829 26835 26782
46 12 27345 27346 27289
47 12 27345 27346 27290
48 12 27345 27346 27291
49 13 26819 26820 26825
50 13 26819 26820 26821
51 13 26826 26825 26820
52 13 26826 26825 26824
53 13 26835 26829 27340
54 13 26835 26829 26830
55 13 27346 27345 27340
56 13 27346 27345 27344
57 14 27335 26824 27376
58 14 26825 26824 27376
59 15 27377 27339 27378
60 16 27377 27339 26869
61 16 27378 27339 26869
62 17 26829 27340 27378
63 17 27345 27340 27378
64 21 26831 26859 27128
65 21 26831 26859 27642
66 21 26821 26861 26873
67 21 26821 26861 27389
68 22 27128 26859 27642
69 22 26873 26861 27389
70 25 26772 27376 27377
71 26 26824 27376 27377
72 27 26824 27376 26772
73 28 27339 27377 27285
74 28 27339 27378 27286
75 29 27285 27377 27376
76 30 27339 27377 27376
77 31 27340 27378 27286
78 32 27339 27378 27340

Dihedrals

1 1 26819 26820 26825 26824
2 1 26819 26820 26825 26826
3 1 26821 26820 26825 26824
4 1 26821 26820 26825 26826
5 1 26819 26820 26821 26861
6 1 26819 26820 26821 27334
7 1 26825 26820 26821 26861
8 1 26825 26820 26821 27334
9 1 26820 26821 27334 27279
10 1 26820 26821 27334 27335
11 1 26861 26821 27334 27279
12 1 26861 26821 27334 27335
13 1 26825 26824 27335 27280
14 1 26825 26824 27335 27334
15 1 27376 26824 27335 27280
16 1 27376 26824 27335 27334
17 1 27335 26824 26825 26820
18 1 27335 26824 26825 26826
19 1 27376 26824 26825 26820
20 1 27376 26824 26825 26826
21 1 26835 26829 27340 27378
22 1 26835 26829 27340 27345
23 1 26830 26829 27340 27378
24 1 26830 26829 27340 27345
25 1 27340 26829 26830 26775
26 1 27340 26829 26830 26831
27 1 26835 26829 26830 26775
28 1 26835 26829 26830 26831
29 1 26775 26830 26831 26859
30 1 26775 26830 26831 27344
31 1 26829 26830 26831 26859
32 1 26829 26830 26831 27344
33 1 26830 26831 27344 27288
34 1 26830 26831 27344 27345
35 1 26859 26831 27344 27288
36 1 26859 26831 27344 27345
37 1 26821 27334 27335 26824
38 1 26821 27334 27335 27280
39 1 27279 27334 27335 26824
40 1 27279 27334 27335 27280
41 1 26829 27340 27345 27344
42 1 26829 27340 27345 27346
43 1 27378 27340 27345 27344
44 1 27378 27340 27345 27346
45 1 26831 27344 27345 27340
46 1 26831 27344 27345 27346
47 1 27288 27344 27345 27340
48 1 27288 27344 27345 27346
49 2 26869 27339 27377 27285
50 2 26869 27339 27377 27376
51 2 27378 27339 27377 27285
52 2 27378 27339 27377 27376
53 2 26869 27339 27378 27286
54 2 26869 27339 27378 27340
55 2 27377 27339 27378 27286
56 2 27377 27339 27378 27340
57 3 26820 26821 26861 26873
58 3 26820 26821 26861 27389
59 3 27334 26821 26861 26873
60 3 27334 26821 26861 27389
61 3 26830 26831 26859 27128
62 3 26830 26831 26859 27642
63 3 27344 26831 26859 27128
64 3 27344 26831 26859 27642
65 4 26764 26819 26820 26825
66 4 26764 26819 26820 26821
67 4 26765 26819 26820 26825
68 4 26765 26819 26820 26821
69 4 26766 26819 26820 26825
70 4 26766 26819 26820 26821
71 4 26820 26825 26826 26643
72 4 26820 26825 26826 26769
73 4 26820 26825 26826 26770
74 4 26824 26825 26826 26643
75 4 26824 26825 26826 26769
76 4 26824 26825 26826 26770
77 4 27340 26829 26835 26780
78 4 27340 26829 26835 26781
79 4 27340 26829 26835 26782
80 4 26830 26829 26835 26780
81 4 26830 26829 26835 26781
82 4 26830 26829 26835 26782
83 4 27340 27345 27346 27289
84 4 27340 27345 27346 27290
85 4 27340 27345 27346 27291
86 4 27344 27345 27346 27289
87 4 27344 27345 27346 27290
88 4 27344 27345 27346 27291
89 5 27335 26824 27376 26772
90 5 27335 26824 27376 27377
91 5 26825 26824 27376 26772
92 5 26825 26824 27376 27377
93 6 26829 27340 27378 27286
94 6 26829 27340 27378 27339
95 6 27345 27340 27378 27286
96 6 27345 27340 27378 27339
97 8 26772 27376 27377 27285
98 8 26772 27376 27377 27339
99 8 26824 27376 27377 27285
100 8 26824 27376 27377 27339

Impropers

1 1 26820 26819 26825 26821
2 1 26821 26820 26861 27334
3 1 26824 27335 26825 27376
4 1 26825 26820 26824 26826
5 1 26829 27340 26835 26830
6 1 26830 26775 26829 26831
7 1 26831 26830 26859 27344
8 1 27334 26821 27279 27335
9 1 27335 26824 27280 27334
10 1 27339 26869 27377 27378
11 1 27340 26829 27378 27345
12 1 27344 26831 27288 27345
13 1 27345 27340 27344 27346
14 2 26859 26831 27128 27642
15 2 26861 26821 26873 27389
16 3 27377 27285 27339 27376
17 3 27378 27286 27339 27340
