# LAMMPS data file written by OVITO Basic 3.2.1
34 atoms
35 bonds
54 angles
76 dihedrals
17 impropers
10 atom types
20 bond types
35 angle types
10 dihedral types
3 improper types
-36.34505702 68.8098889 xlo xhi
-41.43659905 74.73559763 ylo yhi
-39.03563687 78.07127374 zlo zhi
1.97131617 1.90890897 8.13760047 xy xz yz

Masses

1 12.0107  # C
2 12.0107  # C
3 35.453  # Cl
4 63.546  # Cu
5 18.9984032  # F
6 1.00794  # H
7 14.0067  # N
8 14.0067  # N
9 15.9994  # O
10 15.9994  # O

Atoms  # full

26476 27 6 0.0 46.10602702 61.51702905 46.46950687
26477 27 6 0.0 45.47172702 59.38542905 46.11196687
26479 27 6 0.0 46.47027702 54.73030905 46.77810687
26521 27 2 0.0 44.92186702 65.94491905 47.74446687
26524 27 2 0.0 45.11123702 63.13862905 47.30929687
26525 27 2 0.0 45.99643702 64.04041905 46.70548687
26526 27 2 0.0 45.90153702 65.41963905 46.91549687
26529 27 2 0.0 45.34076702 56.55713905 46.88583687
26530 27 2 0.0 45.55127702 55.19642905 47.12543687
26531 27 2 0.0 44.56984702 54.43866905 47.77422687
26559 27 2 0.0 44.57392702 52.94982905 47.71545687
26561 27 2 0.0 44.91769702 67.43375905 47.80323687
26568 27 8 0.0 45.29177702 61.75573905 47.02001687
26569 27 8 0.0 44.84309702 59.48009905 46.90288687
26576 27 10 0.0 46.02834702 67.93677905 47.81645687
26581 27 5 0.0 46.77645702 66.23508905 46.30242687
26582 27 5 0.0 46.95599702 63.57147905 45.89028687
26583 27 5 0.0 46.27776702 57.23271905 46.20047687
26831 27 10 0.0 45.68734163 52.45354349 47.68932687
26987 27 6 0.0 43.26199838 65.42648905 49.04381687
26990 27 6 0.0 43.01650838 58.87595905 47.46457687
26992 27 6 0.0 42.64574838 54.52046905 48.78444687
26993 27 6 0.0 42.27030838 56.88479905 48.29864687
27034 27 2 0.0 44.03541838 65.06084905 48.37022687
27035 27 2 0.0 44.14000838 63.68211905 48.16121687
27039 27 2 0.0 44.37402838 60.75338905 47.23441687
27040 27 2 0.0 44.16408838 57.19998905 47.29720687
27044 27 2 0.0 43.40479838 55.06401905 48.22725687
27045 27 2 0.0 43.20151838 56.42535905 47.97012687
27082 27 7 0.0 43.79886838 58.50951905 46.90172687
27084 27 9 0.0 43.23222838 60.88736905 47.66674687
27092 27 10 0.0 43.80426838 67.93005905 47.82935687
27096 27 5 0.0 43.31323838 62.91784905 48.88145687
27345 27 10 0.0 43.46326299 52.44683349 47.70222687

Bonds

1 5 26479 26530
2 5 26987 27034
3 5 26992 27044
4 5 26993 27045
5 6 26476 26568
6 6 26477 26569
7 7 26990 27082
8 10 26521 26526
9 10 26521 27034
10 10 26524 26525
11 10 26524 27035
12 10 26525 26526
13 10 26529 26530
14 10 26529 27040
15 10 26530 26531
16 10 26531 27044
17 10 27034 27035
18 10 27040 27045
19 10 27044 27045
20 11 26521 26561
21 11 26531 26559
22 12 26568 27039
23 12 26569 27039
24 13 26525 26582
25 13 26526 26581
26 13 26529 26583
27 13 27035 27096
28 14 26524 26568
29 15 27039 27084
30 16 27040 27082
31 18 26559 26831
32 18 26559 27345
33 18 26561 26576
34 18 26561 27092
35 20 26569 27082

Angles

1 10 26526 26521 27034
2 10 26525 26524 27035
3 10 26524 26525 26526
4 10 26521 26526 26525
5 10 26530 26529 27040
6 10 26529 26530 26531
7 10 26530 26531 27044
8 10 26521 27034 27035
9 10 26524 27035 27034
10 10 26529 27040 27045
11 10 26531 27044 27045
12 10 27040 27045 27044
13 11 26561 26521 26526
14 11 26561 26521 27034
15 11 26530 26531 26559
16 11 26559 26531 27044
17 12 26529 26530 26479
18 12 26531 26530 26479
19 12 26521 27034 26987
20 12 27035 27034 26987
21 12 26531 27044 26992
22 12 27045 27044 26992
23 12 27040 27045 26993
24 12 27044 27045 26993
25 16 26568 27039 26569
26 17 26524 26525 26582
27 17 26526 26525 26582
28 17 26521 26526 26581
29 17 26525 26526 26581
30 17 26530 26529 26583
31 17 27040 26529 26583
32 17 26524 27035 27096
33 17 27034 27035 27096
34 18 26525 26524 26568
35 18 27035 26524 26568
36 19 26568 27039 27084
37 19 26569 27039 27084
38 20 26529 27040 27082
39 20 27045 27040 27082
40 22 26531 26559 26831
41 22 26531 26559 27345
42 22 26521 26561 26576
43 22 26521 26561 27092
44 23 26831 26559 27345
45 23 26576 26561 27092
46 27 26524 26568 26476
47 28 27039 26568 26476
48 28 27039 26569 26477
49 29 26524 26568 27039
50 30 26477 26569 27082
51 31 27039 26569 27082
52 32 27040 27082 26990
53 33 26990 27082 26569
54 34 27040 27082 26569

Dihedrals

1 3 26561 26521 26526 26525
2 3 26561 26521 26526 26581
3 3 27034 26521 26526 26525
4 3 27034 26521 26526 26581
5 3 26561 26521 27034 26987
6 3 26561 26521 27034 27035
7 3 26526 26521 27034 26987
8 3 26526 26521 27034 27035
9 3 26568 26524 26525 26526
10 3 26568 26524 26525 26582
11 3 27035 26524 26525 26526
12 3 27035 26524 26525 26582
13 3 26525 26524 27035 27034
14 3 26525 26524 27035 27096
15 3 26568 26524 27035 27034
16 3 26568 26524 27035 27096
17 3 26524 26525 26526 26521
18 3 26524 26525 26526 26581
19 3 26582 26525 26526 26521
20 3 26582 26525 26526 26581
21 3 26583 26529 26530 26479
22 3 26583 26529 26530 26531
23 3 27040 26529 26530 26479
24 3 27040 26529 26530 26531
25 3 26530 26529 27040 27082
26 3 26530 26529 27040 27045
27 3 26583 26529 27040 27082
28 3 26583 26529 27040 27045
29 3 26479 26530 26531 26559
30 3 26479 26530 26531 27044
31 3 26529 26530 26531 26559
32 3 26529 26530 26531 27044
33 3 26530 26531 27044 26992
34 3 26530 26531 27044 27045
35 3 26559 26531 27044 26992
36 3 26559 26531 27044 27045
37 3 26521 27034 27035 26524
38 3 26521 27034 27035 27096
39 3 26987 27034 27035 26524
40 3 26987 27034 27035 27096
41 3 26529 27040 27045 26993
42 3 26529 27040 27045 27044
43 3 27082 27040 27045 26993
44 3 27082 27040 27045 27044
45 3 26531 27044 27045 26993
46 3 26531 27044 27045 27040
47 3 26992 27044 27045 26993
48 3 26992 27044 27045 27040
49 4 26526 26521 26561 26576
50 4 26526 26521 26561 27092
51 4 27034 26521 26561 26576
52 4 27034 26521 26561 27092
53 4 26530 26531 26559 26831
54 4 26530 26531 26559 27345
55 4 27044 26531 26559 26831
56 4 27044 26531 26559 27345
57 5 26476 26568 27039 26569
58 5 26476 26568 27039 27084
59 5 26524 26568 27039 26569
60 5 26524 26568 27039 27084
61 5 26477 26569 27039 26568
62 5 26477 26569 27039 27084
63 5 27082 26569 27039 26568
64 5 27082 26569 27039 27084
65 6 26525 26524 26568 26476
66 6 26525 26524 26568 27039
67 6 27035 26524 26568 26476
68 6 27035 26524 26568 27039
69 7 26529 27040 27082 26569
70 7 26529 27040 27082 26990
71 7 27045 27040 27082 26569
72 7 27045 27040 27082 26990
73 10 26477 26569 27082 26990
74 10 26477 26569 27082 27040
75 10 27039 26569 27082 26990
76 10 27039 26569 27082 27040

Impropers

1 1 26521 26561 26526 27034
2 1 26524 26525 26568 27035
3 1 26525 26524 26526 26582
4 1 26526 26521 26525 26581
5 1 26529 26530 26583 27040
6 1 26530 26479 26529 26531
7 1 26531 26530 26559 27044
8 1 27034 26521 26987 27035
9 1 27035 26524 27034 27096
10 1 27039 26568 26569 27084
11 1 27040 26529 27082 27045
12 1 27044 26531 26992 27045
13 1 27045 26993 27040 27044
14 2 26559 26531 26831 27345
15 2 26561 26521 26576 27092
16 3 26568 26476 26524 27039
17 3 26569 26477 27039 27082
