# LAMMPS data file written by OVITO Basic 3.2.1
38 atoms
40 bonds
66 angles
88 dihedrals
12 impropers
10 atom types
20 bond types
35 angle types
10 dihedral types
3 improper types
-36.34505702 68.8098889 xlo xhi
-41.43659905 74.73559763 ylo yhi
-39.03563687 78.07127374 zlo zhi
1.97131617 1.90890897 8.13760047 xy xz yz

Masses

1 12.0107  # C
2 12.0107  # C
3 35.453  # Cl
4 63.546  # Cu
5 18.9984032  # F
6 1.00794  # H
7 14.0067  # N
8 14.0067  # N
9 15.9994  # O
10 15.9994  # O

Atoms  # full

26472 27 6 0.0 49.65356702 52.58667905 44.38533687
26474 27 6 0.0 51.17857702 52.90609905 45.22462687
26715 27 6 0.0 55.61260163 47.96307349 51.37903687
26716 27 6 0.0 55.62372163 49.71286349 51.09903687
26717 27 6 0.0 57.14822163 48.83871349 51.26609687
26718 27 6 0.0 55.15830163 48.30219349 48.97668687
26719 27 6 0.0 56.71763163 47.57888349 49.17705687
26720 27 6 0.0 56.45465163 52.60794349 46.95619687
26721 27 6 0.0 58.89268163 52.28976349 46.76019687
26722 27 6 0.0 58.77881163 48.73548349 48.80637687
26723 27 6 0.0 50.22430163 50.75385349 49.99773687
26724 27 6 0.0 47.78958163 50.41813349 49.79695687
26725 27 6 0.0 47.92039163 50.59040349 45.70001687
26726 27 6 0.0 50.00661163 50.14256349 44.57415687
26727 27 6 0.0 51.55398163 50.35128349 45.31126687
26761 27 1 0.0 56.13286163 48.77429349 50.85935687
26762 27 1 0.0 56.16280163 48.50779349 49.36023687
26763 27 2 0.0 56.81733163 49.64036349 48.60360687
26764 27 2 0.0 56.13562163 50.75792349 48.06861687
26765 27 2 0.0 56.91159163 51.72494349 47.39680687
26766 27 2 0.0 58.28055163 51.55679349 47.27942687
26767 27 2 0.0 58.20280163 49.57599349 48.42375687
26768 27 2 0.0 54.67784163 50.94260349 48.11908687
26769 27 2 0.0 52.01027163 51.01273349 47.98885687
26770 27 2 0.0 50.55340163 50.87541349 47.84409687
26771 27 2 0.0 49.77135163 50.73738349 49.01158687
26772 27 2 0.0 48.40325163 50.55448349 48.91211687
26773 27 2 0.0 48.49176163 50.64818349 46.62289687
26774 27 2 0.0 49.88156163 50.80606349 46.60022687
26775 27 1 0.0 50.56216163 50.80859349 45.24800687
26776 27 1 0.0 50.65044163 52.18109349 44.59632687
26818 27 8 0.0 58.94227163 50.50122349 47.77760687
26819 27 8 0.0 53.96042163 50.41137349 49.12512687
26820 27 8 0.0 52.59962163 50.43724349 49.05593687
26821 27 8 0.0 47.74660163 50.52045349 47.74097687
26822 27 8 0.0 52.72534163 51.63172349 47.03362687
26823 27 8 0.0 54.08574163 51.58818349 47.09260687
26857 27 6 0.0 51.18716864 52.10713 43.64459

Bonds

1 4 26472 26776
2 4 26474 26776
3 4 26715 26761
4 4 26716 26761
5 4 26717 26761
6 4 26718 26762
7 4 26719 26762
8 4 26726 26775
9 4 26727 26775
10 4 26776 26857
11 5 26720 26765
12 5 26721 26766
13 5 26722 26767
14 5 26723 26771
15 5 26724 26772
16 5 26725 26773
17 8 26761 26762
18 8 26775 26776
19 9 26762 26763
20 9 26774 26775
21 10 26763 26764
22 10 26763 26767
23 10 26764 26765
24 10 26765 26766
25 10 26770 26771
26 10 26770 26774
27 10 26771 26772
28 10 26773 26774
29 11 26764 26768
30 11 26769 26770
31 12 26766 26818
32 12 26767 26818
33 12 26768 26819
34 12 26768 26823
35 12 26769 26820
36 12 26769 26822
37 12 26772 26821
38 12 26773 26821
39 19 26819 26820
40 19 26822 26823

Angles

1 5 26715 26761 26716
2 5 26715 26761 26717
3 5 26716 26761 26717
4 5 26718 26762 26719
5 5 26726 26775 26727
6 5 26472 26776 26474
7 5 26472 26776 26857
8 5 26474 26776 26857
9 6 26762 26761 26715
10 6 26762 26761 26716
11 6 26762 26761 26717
12 6 26761 26762 26718
13 6 26761 26762 26719
14 6 26776 26775 26726
15 6 26776 26775 26727
16 6 26775 26776 26472
17 6 26775 26776 26474
18 6 26775 26776 26857
19 7 26763 26762 26718
20 7 26763 26762 26719
21 7 26774 26775 26726
22 7 26774 26775 26727
23 8 26761 26762 26763
24 8 26776 26775 26774
25 9 26762 26763 26764
26 9 26762 26763 26767
27 9 26775 26774 26770
28 9 26775 26774 26773
29 10 26764 26763 26767
30 10 26763 26764 26765
31 10 26764 26765 26766
32 10 26771 26770 26774
33 10 26770 26771 26772
34 10 26770 26774 26773
35 11 26763 26764 26768
36 11 26768 26764 26765
37 11 26769 26770 26771
38 11 26769 26770 26774
39 12 26764 26765 26720
40 12 26766 26765 26720
41 12 26765 26766 26721
42 12 26763 26767 26722
43 12 26770 26771 26723
44 12 26772 26771 26723
45 12 26771 26772 26724
46 12 26774 26773 26725
47 13 26721 26766 26818
48 13 26722 26767 26818
49 13 26724 26772 26821
50 13 26725 26773 26821
51 14 26765 26766 26818
52 14 26763 26767 26818
53 14 26771 26772 26821
54 14 26774 26773 26821
55 15 26764 26768 26819
56 15 26764 26768 26823
57 15 26770 26769 26820
58 15 26770 26769 26822
59 16 26819 26768 26823
60 16 26820 26769 26822
61 25 26766 26818 26767
62 25 26772 26821 26773
63 26 26768 26819 26820
64 26 26769 26820 26819
65 26 26769 26822 26823
66 26 26768 26823 26822

Dihedrals

1 1 26715 26761 26762 26718
2 1 26715 26761 26762 26719
3 1 26715 26761 26762 26763
4 1 26716 26761 26762 26718
5 1 26716 26761 26762 26719
6 1 26716 26761 26762 26763
7 1 26717 26761 26762 26718
8 1 26717 26761 26762 26719
9 1 26717 26761 26762 26763
10 1 26726 26775 26776 26472
11 1 26726 26775 26776 26474
12 1 26726 26775 26776 26857
13 1 26727 26775 26776 26472
14 1 26727 26775 26776 26474
15 1 26727 26775 26776 26857
16 1 26774 26775 26776 26472
17 1 26774 26775 26776 26474
18 1 26774 26775 26776 26857
19 2 26718 26762 26763 26764
20 2 26718 26762 26763 26767
21 2 26719 26762 26763 26764
22 2 26719 26762 26763 26767
23 2 26761 26762 26763 26764
24 2 26761 26762 26763 26767
25 2 26770 26774 26775 26726
26 2 26770 26774 26775 26727
27 2 26770 26774 26775 26776
28 2 26773 26774 26775 26726
29 2 26773 26774 26775 26727
30 2 26773 26774 26775 26776
31 3 26762 26763 26764 26768
32 3 26762 26763 26764 26765
33 3 26767 26763 26764 26768
34 3 26767 26763 26764 26765
35 3 26762 26763 26767 26722
36 3 26762 26763 26767 26818
37 3 26764 26763 26767 26722
38 3 26764 26763 26767 26818
39 3 26763 26764 26765 26720
40 3 26763 26764 26765 26766
41 3 26768 26764 26765 26720
42 3 26768 26764 26765 26766
43 3 26720 26765 26766 26721
44 3 26720 26765 26766 26818
45 3 26764 26765 26766 26721
46 3 26764 26765 26766 26818
47 3 26769 26770 26771 26723
48 3 26769 26770 26771 26772
49 3 26774 26770 26771 26723
50 3 26774 26770 26771 26772
51 3 26769 26770 26774 26773
52 3 26769 26770 26774 26775
53 3 26771 26770 26774 26773
54 3 26771 26770 26774 26775
55 3 26723 26771 26772 26724
56 3 26723 26771 26772 26821
57 3 26770 26771 26772 26724
58 3 26770 26771 26772 26821
59 3 26725 26773 26774 26770
60 3 26725 26773 26774 26775
61 3 26821 26773 26774 26770
62 3 26821 26773 26774 26775
63 4 26763 26764 26768 26819
64 4 26763 26764 26768 26823
65 4 26765 26764 26768 26819
66 4 26765 26764 26768 26823
67 4 26820 26769 26770 26771
68 4 26820 26769 26770 26774
69 4 26822 26769 26770 26771
70 4 26822 26769 26770 26774
71 5 26721 26766 26818 26767
72 5 26765 26766 26818 26767
73 5 26722 26767 26818 26766
74 5 26763 26767 26818 26766
75 5 26764 26768 26819 26820
76 5 26823 26768 26819 26820
77 5 26764 26768 26823 26822
78 5 26819 26768 26823 26822
79 5 26770 26769 26820 26819
80 5 26822 26769 26820 26819
81 5 26770 26769 26822 26823
82 5 26820 26769 26822 26823
83 5 26724 26772 26821 26773
84 5 26771 26772 26821 26773
85 5 26725 26773 26821 26772
86 5 26774 26773 26821 26772
87 9 26768 26819 26820 26769
88 9 26769 26822 26823 26768

Impropers

1 1 26763 26762 26764 26767
2 1 26764 26763 26768 26765
3 1 26765 26720 26764 26766
4 1 26766 26721 26765 26818
5 1 26767 26722 26763 26818
6 1 26768 26764 26819 26823
7 1 26769 26770 26820 26822
8 1 26770 26769 26771 26774
9 1 26771 26723 26770 26772
10 1 26772 26724 26771 26821
11 1 26773 26725 26774 26821
12 1 26774 26770 26773 26775
