# LAMMPS data file written by OVITO Basic 3.2.1
54 atoms
56 bonds
96 angles
124 dihedrals
20 impropers
10 atom types
20 bond types
35 angle types
10 dihedral types
3 improper types
-36.34505702 68.8098889 xlo xhi
-41.43659905 74.73559763 ylo yhi
-39.03563687 78.07127374 zlo zhi
1.97131617 1.90890897 8.13760047 xy xz yz

Masses

1 12.0107  # C
2 12.0107  # C
3 35.453  # Cl
4 63.546  # Cu
5 18.9984032  # F
6 1.00794  # H
7 14.0067  # N
8 14.0067  # N
9 15.9994  # O
10 15.9994  # O

Atoms  # full

26738 27 6 0.0 46.10682163 47.92653349 53.87416687
26739 27 6 0.0 45.42635163 48.39676349 55.41821687
26740 27 6 0.0 46.98476163 49.09894349 54.83708687
26741 27 6 0.0 45.93245163 49.13489349 52.00653687
26747 27 6 0.0 47.00128163 51.85648349 63.17116687
26748 27 6 0.0 48.10492163 52.36453349 61.27642687
26749 27 6 0.0 47.38545163 52.38971349 59.67509687
26750 27 6 0.0 47.94182163 50.85535349 60.43571687
26751 27 6 0.0 46.61189163 50.47482349 56.27424687
26752 27 6 0.0 46.54902163 49.28570349 59.73978687
26753 27 6 0.0 47.71952163 49.88500349 58.51205687
26754 27 6 0.0 46.54285163 48.61943349 58.13180687
26790 27 1 0.0 45.97314163 48.78072349 54.55560687
26791 27 2 0.0 45.22826163 49.90871349 53.88387687
26792 27 2 0.0 45.28959163 49.89031349 52.47395687
26793 27 2 0.0 44.60337163 50.80002349 51.67654687
26797 27 2 0.0 44.55679163 50.97824349 54.55717687
26798 27 2 0.0 44.55512163 51.07403349 56.07237687
26801 27 2 0.0 44.74924163 51.23415349 58.99490687
26802 27 2 0.0 44.87626163 51.33603349 60.50189687
26805 27 2 0.0 44.87794163 51.57778349 63.35994687
26806 27 2 0.0 46.06836163 51.67062349 62.64001687
26807 27 2 0.0 46.08140163 51.60208349 61.22232687
26808 27 1 0.0 47.44172163 51.81226349 60.59989687
26809 27 2 0.0 45.70526163 50.57809349 58.19614687
26810 27 2 0.0 45.70111163 50.74520349 56.79702687
26811 27 1 0.0 46.69323163 49.55232349 58.69085687
26814 27 2 0.0 44.59528163 50.63738349 50.19548687
26830 27 10 0.0 45.70461163 50.58623349 49.69196687
26944 27 2 0.0 44.88596163 51.74043349 64.84102687
26957 27 10 0.0 46.00070163 51.79833349 65.33164687
26999 27 6 0.0 43.53122838 53.77747905 51.42561687
27014 27 6 0.0 43.32477838 54.08376905 53.57972687
27015 27 6 0.0 44.11565838 53.67796905 55.06945687
27069 27 1 0.0 43.42130838 53.28625905 54.32040687
27254 27 6 0.0 42.87597299 52.45408349 50.45165687
27256 27 6 0.0 42.05491299 52.89092349 51.91708687
27257 27 6 0.0 42.75905299 50.93496349 60.82791687
27258 27 6 0.0 42.74625299 51.32407349 63.21810687
27267 27 6 0.0 42.14455299 53.31489349 58.15131687
27268 27 6 0.0 43.00428299 53.28449349 59.65834687
27269 27 6 0.0 41.74757299 52.04663349 59.31901687
27272 27 6 0.0 42.42664299 53.16668349 54.74697687
27306 27 2 0.0 43.88260299 51.83266349 52.29896687
27307 27 1 0.0 43.05289299 52.79540349 51.47356687
27308 27 2 0.0 43.95127299 51.98917349 53.72596687
27311 27 2 0.0 43.46228299 51.42562349 56.88121687
27312 27 2 0.0 43.62409299 51.74342349 58.27127687
27315 27 2 0.0 43.71039299 51.18211349 61.29202687
27316 27 2 0.0 43.69140299 51.36036349 62.67971687
27324 27 1 0.0 42.56942299 52.62970349 58.89527687
27339 27 3 0.0 41.82805299 51.22430349 56.29568687
27346 27 10 0.0 43.48050299 50.57951349 49.70486687
27475 27 10 0.0 43.77659299 51.79161349 65.34454687

Bonds

1 4 26738 26790
2 4 26739 26790
3 4 26740 26790
4 4 26748 26808
5 4 26749 26808
6 4 26750 26808
7 4 26752 26811
8 4 26753 26811
9 4 26754 26811
10 4 26999 27307
11 4 27014 27069
12 4 27015 27069
13 4 27069 27272
14 4 27254 27307
15 4 27256 27307
16 4 27267 27324
17 4 27268 27324
18 4 27269 27324
19 5 26741 26792
20 5 26747 26806
21 5 26751 26810
22 5 27257 27315
23 5 27258 27316
24 9 26790 26791
25 9 26807 26808
26 9 26809 26811
27 9 27069 27308
28 9 27306 27307
29 9 27312 27324
30 10 26791 26797
31 10 26791 26792
32 10 26792 26793
33 10 26793 27306
34 10 26797 27308
35 10 26798 26810
36 10 26798 27311
37 10 26801 27312
38 10 26801 26809
39 10 26802 26807
40 10 26802 27315
41 10 26805 27316
42 10 26805 26806
43 10 26806 26807
44 10 26809 26810
45 10 27306 27308
46 10 27311 27312
47 10 27315 27316
48 11 26793 26814
49 11 26797 26798
50 11 26801 26802
51 11 26805 26944
52 17 27311 27339
53 18 26814 26830
54 18 26814 27346
55 18 26944 26957
56 18 26944 27475

Angles

1 5 26738 26790 26739
2 5 26738 26790 26740
3 5 26739 26790 26740
4 5 26748 26808 26749
5 5 26748 26808 26750
6 5 26749 26808 26750
7 5 26752 26811 26753
8 5 26752 26811 26754
9 5 26753 26811 26754
10 5 27014 27069 27015
11 5 27014 27069 27272
12 5 27015 27069 27272
13 5 26999 27307 27254
14 5 26999 27307 27256
15 5 27254 27307 27256
16 5 27267 27324 27268
17 5 27267 27324 27269
18 5 27268 27324 27269
19 7 26791 26790 26738
20 7 26791 26790 26739
21 7 26791 26790 26740
22 7 26807 26808 26748
23 7 26807 26808 26749
24 7 26807 26808 26750
25 7 26809 26811 26752
26 7 26809 26811 26753
27 7 26809 26811 26754
28 7 27308 27069 27014
29 7 27308 27069 27015
30 7 27308 27069 27272
31 7 27306 27307 26999
32 7 27306 27307 27254
33 7 27306 27307 27256
34 7 27312 27324 27267
35 7 27312 27324 27268
36 7 27312 27324 27269
37 9 26790 26791 26797
38 9 26790 26791 26792
39 9 26808 26807 26802
40 9 26808 26807 26806
41 9 26811 26809 26801
42 9 26811 26809 26810
43 9 27307 27306 26793
44 9 27307 27306 27308
45 9 27069 27308 26797
46 9 27069 27308 27306
47 9 27324 27312 26801
48 9 27324 27312 27311
49 10 26797 26791 26792
50 10 26791 26792 26793
51 10 26792 26793 27306
52 10 26791 26797 27308
53 10 26810 26798 27311
54 10 27312 26801 26809
55 10 26807 26802 27315
56 10 27316 26805 26806
57 10 26805 26806 26807
58 10 26802 26807 26806
59 10 26801 26809 26810
60 10 26798 26810 26809
61 10 26793 27306 27308
62 10 26797 27308 27306
63 10 26798 27311 27312
64 10 26801 27312 27311
65 10 26802 27315 27316
66 10 26805 27316 27315
67 11 26792 26793 26814
68 11 26814 26793 27306
69 11 26791 26797 26798
70 11 27308 26797 26798
71 11 26797 26798 26810
72 11 26797 26798 27311
73 11 27312 26801 26802
74 11 26802 26801 26809
75 11 26801 26802 26807
76 11 26801 26802 27315
77 11 27316 26805 26944
78 11 26806 26805 26944
79 12 26791 26792 26741
80 12 26793 26792 26741
81 12 26805 26806 26747
82 12 26807 26806 26747
83 12 26798 26810 26751
84 12 26809 26810 26751
85 12 26802 27315 27257
86 12 27316 27315 27257
87 12 26805 27316 27258
88 12 27315 27316 27258
89 21 26798 27311 27339
90 21 27312 27311 27339
91 22 26793 26814 26830
92 22 26793 26814 27346
93 22 26805 26944 26957
94 22 26805 26944 27475
95 23 26830 26814 27346
96 23 26957 26944 27475

Dihedrals

1 2 26738 26790 26791 26797
2 2 26738 26790 26791 26792
3 2 26739 26790 26791 26797
4 2 26739 26790 26791 26792
5 2 26740 26790 26791 26797
6 2 26740 26790 26791 26792
7 2 26802 26807 26808 26748
8 2 26802 26807 26808 26749
9 2 26802 26807 26808 26750
10 2 26806 26807 26808 26748
11 2 26806 26807 26808 26749
12 2 26806 26807 26808 26750
13 2 26801 26809 26811 26752
14 2 26801 26809 26811 26753
15 2 26801 26809 26811 26754
16 2 26810 26809 26811 26752
17 2 26810 26809 26811 26753
18 2 26810 26809 26811 26754
19 2 27014 27069 27308 26797
20 2 27014 27069 27308 27306
21 2 27015 27069 27308 26797
22 2 27015 27069 27308 27306
23 2 27272 27069 27308 26797
24 2 27272 27069 27308 27306
25 2 26793 27306 27307 26999
26 2 26793 27306 27307 27254
27 2 26793 27306 27307 27256
28 2 27308 27306 27307 26999
29 2 27308 27306 27307 27254
30 2 27308 27306 27307 27256
31 2 26801 27312 27324 27267
32 2 26801 27312 27324 27268
33 2 26801 27312 27324 27269
34 2 27311 27312 27324 27267
35 2 27311 27312 27324 27268
36 2 27311 27312 27324 27269
37 3 26790 26791 26797 27308
38 3 26790 26791 26797 26798
39 3 26792 26791 26797 27308
40 3 26792 26791 26797 26798
41 3 26790 26791 26792 26741
42 3 26790 26791 26792 26793
43 3 26797 26791 26792 26741
44 3 26797 26791 26792 26793
45 3 26741 26792 26793 26814
46 3 26741 26792 26793 27306
47 3 26791 26792 26793 26814
48 3 26791 26792 26793 27306
49 3 26792 26793 27306 27308
50 3 26792 26793 27306 27307
51 3 26814 26793 27306 27308
52 3 26814 26793 27306 27307
53 3 26791 26797 27308 27069
54 3 26791 26797 27308 27306
55 3 26798 26797 27308 27069
56 3 26798 26797 27308 27306
57 3 26797 26798 26810 26751
58 3 26797 26798 26810 26809
59 3 27311 26798 26810 26751
60 3 27311 26798 26810 26809
61 3 26797 26798 27311 27312
62 3 26797 26798 27311 27339
63 3 26810 26798 27311 27312
64 3 26810 26798 27311 27339
65 3 26802 26801 27312 27311
66 3 26802 26801 27312 27324
67 3 26809 26801 27312 27311
68 3 26809 26801 27312 27324
69 3 27312 26801 26809 26810
70 3 27312 26801 26809 26811
71 3 26802 26801 26809 26810
72 3 26802 26801 26809 26811
73 3 26801 26802 26807 26806
74 3 26801 26802 26807 26808
75 3 27315 26802 26807 26806
76 3 27315 26802 26807 26808
77 3 26801 26802 27315 27257
78 3 26801 26802 27315 27316
79 3 26807 26802 27315 27257
80 3 26807 26802 27315 27316
81 3 26806 26805 27316 27258
82 3 26806 26805 27316 27315
83 3 26944 26805 27316 27258
84 3 26944 26805 27316 27315
85 3 27316 26805 26806 26747
86 3 27316 26805 26806 26807
87 3 26944 26805 26806 26747
88 3 26944 26805 26806 26807
89 3 26747 26806 26807 26802
90 3 26747 26806 26807 26808
91 3 26805 26806 26807 26802
92 3 26805 26806 26807 26808
93 3 26801 26809 26810 26751
94 3 26801 26809 26810 26798
95 3 26811 26809 26810 26751
96 3 26811 26809 26810 26798
97 3 26793 27306 27308 26797
98 3 26793 27306 27308 27069
99 3 27307 27306 27308 26797
100 3 27307 27306 27308 27069
101 3 26798 27311 27312 26801
102 3 26798 27311 27312 27324
103 3 27339 27311 27312 26801
104 3 27339 27311 27312 27324
105 3 26802 27315 27316 26805
106 3 26802 27315 27316 27258
107 3 27257 27315 27316 26805
108 3 27257 27315 27316 27258
109 4 26792 26793 26814 26830
110 4 26792 26793 26814 27346
111 4 27306 26793 26814 26830
112 4 27306 26793 26814 27346
113 4 26791 26797 26798 26810
114 4 26791 26797 26798 27311
115 4 27308 26797 26798 26810
116 4 27308 26797 26798 27311
117 4 27312 26801 26802 26807
118 4 27312 26801 26802 27315
119 4 26809 26801 26802 26807
120 4 26809 26801 26802 27315
121 4 27316 26805 26944 26957
122 4 27316 26805 26944 27475
123 4 26806 26805 26944 26957
124 4 26806 26805 26944 27475

Impropers

1 1 26791 26790 26797 26792
2 1 26792 26741 26791 26793
3 1 26793 26792 26814 27306
4 1 26797 26791 27308 26798
5 1 26798 26797 26810 27311
6 1 26801 27312 26802 26809
7 1 26802 26801 26807 27315
8 1 26805 27316 26806 26944
9 1 26806 26747 26805 26807
10 1 26807 26802 26806 26808
11 1 26809 26801 26810 26811
12 1 26810 26751 26798 26809
13 1 27306 26793 27308 27307
14 1 27308 26797 27069 27306
15 1 27311 26798 27312 27339
16 1 27312 26801 27311 27324
17 1 27315 26802 27257 27316
18 1 27316 26805 27258 27315
19 2 26814 26793 26830 27346
20 2 26944 26805 26957 27475
