# LAMMPS data file written by OVITO Basic 3.2.1
36 atoms
38 bonds
61 angles
88 dihedrals
18 impropers
12 atom types
22 bond types
44 angle types
12 dihedral types
4 improper types
-35.25712814 76.01506492 xlo xhi
-41.0852076 73.84713135 ylo yhi
-38.75909103 77.51818206 zlo zhi
-4.43753391 -1.06327473 8.32328385 xy xz yz

Masses

1 12.0107  # C
2 12.0107  # C
3 12.0107  # C
4 35.453  # Cl
5 18.9984032  # F
6 1.00794  # H
7 14.0067  # N
8 14.0067  # N
9 15.9994  # O
10 15.9994  # O
11 15.9994  # O
12 65.38  # Zn

Atoms  # full

8716 9 3 0.0 -13.4528839 55.9283576 48.80505103
8745 9 3 0.0 -13.3953639 54.4405576 48.74830103
8763 9 10 0.0 -12.2648339 53.9843976 48.72613103
8765 9 10 0.0 -14.4872839 53.8980976 48.73249103
8934 9 6 0.0 -15.8218439 64.4391476 49.02768103
8935 9 6 0.0 -14.2238839 56.1136376 50.83681103
8936 9 6 0.0 -12.5898039 56.1202676 46.82280103
8937 9 6 0.0 -11.5964939 62.6270276 49.52039103
8938 9 6 0.0 -11.7637839 62.5914576 47.73008103
8971 9 3 0.0 -13.8878439 67.2338276 48.78602103
8972 9 3 0.0 -12.6481939 66.6222876 48.63615103
8973 9 3 0.0 -12.5338139 65.2343076 48.63744103
8974 9 3 0.0 -13.6586539 64.4145176 48.78067103
8975 9 3 0.0 -14.9123939 65.0288476 48.91786103
8976 9 3 0.0 -15.0128339 66.4235276 48.92378103
8977 9 1 0.0 -13.5584639 62.9154576 48.81005103
8978 9 3 0.0 -14.6233239 60.8441076 48.97366103
8979 9 3 0.0 -13.4232939 58.7423776 48.83203103
8980 9 3 0.0 -13.8953339 58.0185776 49.92973103
8981 9 3 0.0 -13.9028439 56.6229176 49.93351103
8983 9 3 0.0 -12.9609039 56.6402776 47.70379103
8984 9 3 0.0 -12.9442339 58.0323476 47.72834103
8985 9 3 0.0 -12.1905439 60.7965776 48.71396103
8986 9 2 0.0 -12.2121439 62.2839776 48.68022103
9012 9 3 0.0 -13.9454539 68.7216176 48.84277103
9022 9 8 0.0 -14.6348639 62.2182076 48.96036103
9023 9 8 0.0 -13.4103839 60.1677276 48.84074103
9025 9 9 0.0 -15.6913839 60.2382976 49.04605103
9026 9 9 0.0 -11.1048239 60.2116776 48.68453103
9030 9 11 0.0 -12.8535639 69.2640776 48.85857103
9034 9 10 0.0 -15.0760139 69.1777876 48.86492103
9035 9 5 0.0 -16.2222539 66.9768676 49.09365103
9036 9 5 0.0 -14.2847239 58.6618976 51.04020103
9037 9 5 0.0 -12.5146839 58.6900276 46.64107103
9038 9 5 0.0 -11.3061139 64.7135876 48.51150103
9039 9 5 0.0 -11.5257039 67.3485276 48.52768103

Bonds

1 5 8934 8975
2 5 8935 8981
3 5 8936 8983
4 7 8937 8986
5 7 8938 8986
6 8 8978 9022
7 8 8978 9023
8 8 8985 9023
9 10 8716 8981
10 10 8716 8983
11 10 8971 8976
12 10 8971 8972
13 10 8972 8973
14 10 8973 8974
15 10 8974 8975
16 10 8975 8976
17 10 8979 8980
18 10 8979 8984
19 10 8980 8981
20 10 8983 8984
21 11 8716 8745
22 11 8971 9012
23 12 8985 8986
24 14 8972 9039
25 14 8973 9038
26 14 8976 9035
27 14 8980 9036
28 14 8984 9037
29 15 8974 8977
30 16 8977 8986
31 17 8977 9022
32 18 8978 9025
33 18 8985 9026
34 19 8979 9023
35 21 8745 8763
36 21 8745 8765
37 21 9012 9034
38 22 9012 9030

Angles

1 9 8974 8975 8934
2 9 8976 8975 8934
3 9 8716 8981 8935
4 9 8980 8981 8935
5 9 8716 8983 8936
6 9 8984 8983 8936
7 10 8981 8716 8983
8 10 8976 8971 8972
9 10 8971 8972 8973
10 10 8972 8973 8974
11 10 8973 8974 8975
12 10 8974 8975 8976
13 10 8971 8976 8975
14 10 8980 8979 8984
15 10 8979 8980 8981
16 10 8716 8981 8980
17 10 8716 8983 8984
18 10 8979 8984 8983
19 11 8981 8716 8745
20 11 8745 8716 8983
21 11 8976 8971 9012
22 11 8972 8971 9012
23 14 8937 8986 8938
24 15 8985 8986 8937
25 15 8985 8986 8938
26 16 8971 8972 9039
27 16 8973 8972 9039
28 16 8972 8973 9038
29 16 8974 8973 9038
30 16 8971 8976 9035
31 16 8975 8976 9035
32 16 8979 8980 9036
33 16 8981 8980 9036
34 16 8979 8984 9037
35 16 8983 8984 9037
36 17 8977 8974 8973
37 17 8977 8974 8975
38 18 8986 8977 8974
39 19 8974 8977 9022
40 20 8986 8977 9022
41 21 9022 8978 9025
42 21 9023 8978 9025
43 21 9023 8985 9026
44 22 9022 8978 9023
45 23 8980 8979 9023
46 23 8984 8979 9023
47 24 8986 8985 9026
48 25 8986 8985 9023
49 26 8977 8986 8937
50 26 8977 8986 8938
51 27 8977 8986 8985
52 31 8716 8745 8763
53 31 8716 8745 8765
54 31 8971 9012 9034
55 32 8763 8745 8765
56 33 8971 9012 9030
57 34 9034 9012 9030
58 38 8978 9023 8985
59 39 8977 9022 8978
60 40 8978 9023 8979
61 40 8979 9023 8985

Dihedrals

1 1 9025 8978 9022 8977
2 1 9023 8978 9022 8977
3 1 9025 8978 9023 8979
4 1 9025 8978 9023 8985
5 1 9022 8978 9023 8979
6 1 9022 8978 9023 8985
7 1 8986 8985 9023 8978
8 1 8986 8985 9023 8979
9 1 9026 8985 9023 8978
10 1 9026 8985 9023 8979
11 3 8745 8716 8981 8935
12 3 8745 8716 8981 8980
13 3 8983 8716 8981 8935
14 3 8983 8716 8981 8980
15 3 8981 8716 8983 8936
16 3 8981 8716 8983 8984
17 3 8745 8716 8983 8936
18 3 8745 8716 8983 8984
19 3 8972 8971 8976 8975
20 3 8972 8971 8976 9035
21 3 9012 8971 8976 8975
22 3 9012 8971 8976 9035
23 3 8976 8971 8972 9039
24 3 8976 8971 8972 8973
25 3 9012 8971 8972 9039
26 3 9012 8971 8972 8973
27 3 8971 8972 8973 8974
28 3 8971 8972 8973 9038
29 3 9039 8972 8973 8974
30 3 9039 8972 8973 9038
31 3 8972 8973 8974 8975
32 3 8972 8973 8974 8977
33 3 9038 8973 8974 8975
34 3 9038 8973 8974 8977
35 3 8973 8974 8975 8934
36 3 8973 8974 8975 8976
37 3 8977 8974 8975 8934
38 3 8977 8974 8975 8976
39 3 8934 8975 8976 8971
40 3 8934 8975 8976 9035
41 3 8974 8975 8976 8971
42 3 8974 8975 8976 9035
43 3 9023 8979 8980 9036
44 3 9023 8979 8980 8981
45 3 8984 8979 8980 9036
46 3 8984 8979 8980 8981
47 3 9023 8979 8984 8983
48 3 9023 8979 8984 9037
49 3 8980 8979 8984 8983
50 3 8980 8979 8984 9037
51 3 8979 8980 8981 8716
52 3 8979 8980 8981 8935
53 3 9036 8980 8981 8716
54 3 9036 8980 8981 8935
55 3 8716 8983 8984 8979
56 3 8716 8983 8984 9037
57 3 8936 8983 8984 8979
58 3 8936 8983 8984 9037
59 4 8981 8716 8745 8763
60 4 8981 8716 8745 8765
61 4 8983 8716 8745 8763
62 4 8983 8716 8745 8765
63 4 8976 8971 9012 9030
64 4 8976 8971 9012 9034
65 4 8972 8971 9012 9030
66 4 8972 8971 9012 9034
67 5 9026 8985 8986 8937
68 5 9026 8985 8986 8938
69 5 9026 8985 8986 8977
70 5 9023 8985 8986 8937
71 5 9023 8985 8986 8938
72 5 9023 8985 8986 8977
73 6 8973 8974 8977 8986
74 6 8973 8974 8977 9022
75 6 8975 8974 8977 8986
76 6 8975 8974 8977 9022
77 7 8974 8977 8986 8937
78 7 8974 8977 8986 8938
79 7 8974 8977 8986 8985
80 7 9022 8977 8986 8937
81 7 9022 8977 8986 8938
82 7 9022 8977 8986 8985
83 8 8974 8977 9022 8978
84 8 8986 8977 9022 8978
85 9 8980 8979 9023 8978
86 9 8980 8979 9023 8985
87 9 8984 8979 9023 8978
88 9 8984 8979 9023 8985

Impropers

1 1 8716 8981 8745 8983
2 1 8971 8976 8972 9012
3 1 8972 8971 9039 8973
4 1 8973 8972 8974 9038
5 1 8974 8973 8975 8977
6 1 8975 8934 8974 8976
7 1 8976 8971 8975 9035
8 1 8978 9025 9022 9023
9 1 8979 9023 8980 8984
10 1 8980 8979 9036 8981
11 1 8981 8716 8935 8980
12 1 8983 8716 8936 8984
13 1 8984 8979 8983 9037
14 1 8985 8986 9026 9023
15 2 8977 8974 8986 9022
16 3 8745 8716 8763 8765
17 3 9012 8971 9030 9034
18 4 9023 8978 8979 8985
