# LAMMPS data file written by OVITO Basic 3.2.1
47 atoms
49 bonds
77 angles
106 dihedrals
16 impropers
12 atom types
22 bond types
44 angle types
12 dihedral types
4 improper types
-35.25712814 76.01506492 xlo xhi
-41.0852076 73.84713135 ylo yhi
-38.75909103 77.51818206 zlo zhi
-4.43753391 -1.06327473 8.32328385 xy xz yz

Masses

1 12.0107  # C
2 12.0107  # C
3 12.0107  # C
4 35.453  # Cl
5 18.9984032  # F
6 1.00794  # H
7 14.0067  # N
8 14.0067  # N
9 15.9994  # O
10 15.9994  # O
11 15.9994  # O
12 65.38  # Zn

Atoms  # full

8648 9 6 0.0 -17.1374239 52.9498076 45.94515103
8649 9 6 0.0 -15.8143739 52.9814676 46.99290103
8650 9 6 0.0 -19.3801539 53.0299076 47.07652103
8651 9 6 0.0 -20.3588639 50.9445176 51.36194103
8652 9 6 0.0 -18.8615939 50.1848976 51.62605103
8653 9 6 0.0 -16.8934339 51.1046676 51.72442103
8654 9 6 0.0 -15.6890839 50.8626476 50.57404103
8655 9 6 0.0 -21.3881939 50.0942276 49.91490103
8657 9 6 0.0 -28.0652939 54.9860776 47.94962103
8658 9 6 0.0 -26.2154739 55.2866476 49.04074103
8659 9 6 0.0 -24.6767539 54.6358976 48.81320103
8660 9 6 0.0 -28.2213739 49.2180376 47.92836103
8662 9 6 0.0 -24.7744339 49.5977676 48.04392103
8663 9 6 0.0 -26.1875039 48.8941876 48.67459103
8664 9 6 0.0 -21.2674339 53.7764576 47.73409103
8665 9 6 0.0 -23.1996639 49.7103976 51.24806103
8666 9 6 0.0 -24.7811339 50.4183576 50.99512103
8667 9 6 0.0 -24.1794039 49.0857976 49.94769103
8688 9 3 0.0 -17.4922939 52.4894076 47.87177103
8689 9 3 0.0 -18.8807839 52.5277876 47.90238103
8690 9 3 0.0 -19.6055739 51.9614776 48.96561103
8691 9 3 0.0 -18.8432739 51.3635476 49.99075103
8692 9 3 0.0 -17.4350039 51.3336276 49.83468103
8693 9 3 0.0 -21.0936339 51.9735376 48.91072103
8694 9 3 0.0 -21.8760639 50.9650376 49.47816103
8695 9 3 0.0 -23.2897839 51.0246176 49.53948103
8696 9 3 0.0 -24.0010839 51.9816576 48.75778103
8697 9 3 0.0 -25.5084439 52.0504376 48.70135103
8698 9 3 0.0 -26.3033939 50.8914776 48.53886103
8699 9 3 0.0 -27.7113739 50.9901976 48.66942103
8700 9 3 0.0 -27.6364639 53.2490176 48.81851103
8701 9 3 0.0 -26.2221939 53.2760276 48.84546103
8702 9 3 0.0 -23.1893439 52.8868776 48.03272103
8703 9 3 0.0 -21.7975239 52.9520776 48.20630103
8704 9 2 0.0 -23.9156939 50.0077676 50.47054103
8747 9 7 0.0 -16.8002639 53.1710076 46.87473103
8748 9 7 0.0 -19.3571839 50.9969676 51.25966103
8749 9 8 0.0 -16.7631139 51.8689476 48.80534103
8750 9 7 0.0 -16.6595739 50.6973676 50.82455103
8751 9 8 0.0 -28.3835139 52.1379376 48.78562103
8752 9 7 0.0 -28.3524639 54.4663876 48.77538103
8753 9 7 0.0 -25.5955339 54.4978876 49.21625103
8754 9 7 0.0 -28.4690239 49.8059176 48.71686103
8755 9 7 0.0 -25.7837139 49.6400976 48.10694103
8758 9 4 0.0 -23.8092939 53.9626776 46.81131103
9188 9 6 0.0 -29.33305492 54.2037576 48.70342103
9193 9 6 0.0 -29.44704492 50.0784976 48.72379103

Bonds

1 4 8648 8747
2 4 8649 8747
3 4 8651 8748
4 4 8652 8748
5 4 8653 8750
6 4 8654 8750
7 4 8657 8752
8 4 8658 8753
9 4 8659 8753
10 4 8660 8754
11 4 8662 8755
12 4 8663 8755
13 4 8752 9188
14 4 8754 9193
15 5 8650 8689
16 5 8655 8694
17 5 8664 8703
18 7 8665 8704
19 7 8666 8704
20 7 8667 8704
21 8 8688 8749
22 8 8692 8749
23 8 8699 8751
24 8 8700 8751
25 9 8688 8747
26 9 8691 8748
27 9 8692 8750
28 9 8698 8755
29 9 8699 8754
30 9 8700 8752
31 9 8701 8753
32 10 8688 8689
33 10 8689 8690
34 10 8690 8691
35 10 8691 8692
36 10 8693 8703
37 10 8693 8694
38 10 8694 8695
39 10 8695 8696
40 10 8696 8702
41 10 8697 8698
42 10 8697 8701
43 10 8698 8699
44 10 8700 8701
45 10 8702 8703
46 11 8690 8693
47 11 8696 8697
48 12 8695 8704
49 13 8702 8758

Angles

1 6 8747 8688 8749
2 6 8750 8692 8749
3 6 8754 8699 8751
4 6 8752 8700 8751
5 7 8689 8688 8749
6 7 8691 8692 8749
7 7 8698 8699 8751
8 7 8701 8700 8751
9 8 8689 8688 8747
10 8 8690 8691 8748
11 8 8692 8691 8748
12 8 8691 8692 8750
13 8 8697 8698 8755
14 8 8699 8698 8755
15 8 8698 8699 8754
16 8 8701 8700 8752
17 8 8697 8701 8753
18 8 8700 8701 8753
19 9 8688 8689 8650
20 9 8690 8689 8650
21 9 8693 8694 8655
22 9 8695 8694 8655
23 9 8693 8703 8664
24 9 8702 8703 8664
25 10 8688 8689 8690
26 10 8689 8690 8691
27 10 8690 8691 8692
28 10 8703 8693 8694
29 10 8693 8694 8695
30 10 8694 8695 8696
31 10 8695 8696 8702
32 10 8698 8697 8701
33 10 8697 8698 8699
34 10 8697 8701 8700
35 10 8696 8702 8703
36 10 8693 8703 8702
37 11 8689 8690 8693
38 11 8693 8690 8691
39 11 8690 8693 8703
40 11 8690 8693 8694
41 11 8695 8696 8697
42 11 8697 8696 8702
43 11 8696 8697 8698
44 11 8696 8697 8701
45 12 8704 8695 8694
46 12 8704 8695 8696
47 13 8696 8702 8758
48 13 8703 8702 8758
49 14 8665 8704 8666
50 14 8665 8704 8667
51 14 8666 8704 8667
52 15 8695 8704 8665
53 15 8695 8704 8666
54 15 8695 8704 8667
55 35 8648 8747 8649
56 35 8651 8748 8652
57 35 8653 8750 8654
58 35 8657 8752 9188
59 35 8658 8753 8659
60 35 8660 8754 9193
61 35 8662 8755 8663
62 36 8688 8747 8648
63 36 8688 8747 8649
64 36 8691 8748 8651
65 36 8691 8748 8652
66 36 8692 8750 8653
67 36 8692 8750 8654
68 36 8700 8752 8657
69 36 8700 8752 9188
70 36 8701 8753 8658
71 36 8701 8753 8659
72 36 8699 8754 8660
73 36 8699 8754 9193
74 36 8698 8755 8662
75 36 8698 8755 8663
76 38 8688 8749 8692
77 38 8699 8751 8700

Dihedrals

1 1 8747 8688 8749 8692
2 1 8689 8688 8749 8692
3 1 8691 8692 8749 8688
4 1 8750 8692 8749 8688
5 1 8698 8699 8751 8700
6 1 8754 8699 8751 8700
7 1 8752 8700 8751 8699
8 1 8701 8700 8751 8699
9 2 8749 8688 8747 8648
10 2 8749 8688 8747 8649
11 2 8689 8688 8747 8648
12 2 8689 8688 8747 8649
13 2 8690 8691 8748 8651
14 2 8690 8691 8748 8652
15 2 8692 8691 8748 8651
16 2 8692 8691 8748 8652
17 2 8691 8692 8750 8653
18 2 8691 8692 8750 8654
19 2 8749 8692 8750 8653
20 2 8749 8692 8750 8654
21 2 8697 8698 8755 8662
22 2 8697 8698 8755 8663
23 2 8699 8698 8755 8662
24 2 8699 8698 8755 8663
25 2 8698 8699 8754 8660
26 2 8698 8699 8754 9193
27 2 8751 8699 8754 8660
28 2 8751 8699 8754 9193
29 2 8701 8700 8752 8657
30 2 8701 8700 8752 9188
31 2 8751 8700 8752 8657
32 2 8751 8700 8752 9188
33 2 8697 8701 8753 8658
34 2 8697 8701 8753 8659
35 2 8700 8701 8753 8658
36 2 8700 8701 8753 8659
37 3 8749 8688 8689 8650
38 3 8749 8688 8689 8690
39 3 8747 8688 8689 8650
40 3 8747 8688 8689 8690
41 3 8650 8689 8690 8693
42 3 8650 8689 8690 8691
43 3 8688 8689 8690 8693
44 3 8688 8689 8690 8691
45 3 8689 8690 8691 8692
46 3 8689 8690 8691 8748
47 3 8693 8690 8691 8692
48 3 8693 8690 8691 8748
49 3 8690 8691 8692 8750
50 3 8690 8691 8692 8749
51 3 8748 8691 8692 8750
52 3 8748 8691 8692 8749
53 3 8690 8693 8703 8664
54 3 8690 8693 8703 8702
55 3 8694 8693 8703 8664
56 3 8694 8693 8703 8702
57 3 8690 8693 8694 8655
58 3 8690 8693 8694 8695
59 3 8703 8693 8694 8655
60 3 8703 8693 8694 8695
61 3 8655 8694 8695 8696
62 3 8655 8694 8695 8704
63 3 8693 8694 8695 8696
64 3 8693 8694 8695 8704
65 3 8694 8695 8696 8697
66 3 8694 8695 8696 8702
67 3 8704 8695 8696 8697
68 3 8704 8695 8696 8702
69 3 8695 8696 8702 8703
70 3 8695 8696 8702 8758
71 3 8697 8696 8702 8703
72 3 8697 8696 8702 8758
73 3 8696 8697 8698 8755
74 3 8696 8697 8698 8699
75 3 8701 8697 8698 8755
76 3 8701 8697 8698 8699
77 3 8696 8697 8701 8700
78 3 8696 8697 8701 8753
79 3 8698 8697 8701 8700
80 3 8698 8697 8701 8753
81 3 8697 8698 8699 8754
82 3 8697 8698 8699 8751
83 3 8755 8698 8699 8754
84 3 8755 8698 8699 8751
85 3 8752 8700 8701 8697
86 3 8752 8700 8701 8753
87 3 8751 8700 8701 8697
88 3 8751 8700 8701 8753
89 3 8696 8702 8703 8664
90 3 8696 8702 8703 8693
91 3 8758 8702 8703 8664
92 3 8758 8702 8703 8693
93 4 8689 8690 8693 8703
94 4 8689 8690 8693 8694
95 4 8691 8690 8693 8703
96 4 8691 8690 8693 8694
97 4 8695 8696 8697 8698
98 4 8695 8696 8697 8701
99 4 8702 8696 8697 8698
100 4 8702 8696 8697 8701
101 5 8694 8695 8704 8665
102 5 8694 8695 8704 8666
103 5 8694 8695 8704 8667
104 5 8696 8695 8704 8665
105 5 8696 8695 8704 8666
106 5 8696 8695 8704 8667

Impropers

1 1 8688 8749 8747 8689
2 1 8689 8650 8688 8690
3 1 8690 8689 8693 8691
4 1 8691 8690 8692 8748
5 1 8692 8691 8750 8749
6 1 8693 8690 8703 8694
7 1 8694 8655 8693 8695
8 1 8695 8694 8696 8704
9 1 8696 8695 8697 8702
10 1 8697 8696 8698 8701
11 1 8698 8697 8755 8699
12 1 8699 8698 8754 8751
13 1 8700 8752 8701 8751
14 1 8701 8697 8700 8753
15 1 8702 8696 8703 8758
16 1 8703 8664 8693 8702
