# LAMMPS data file written by OVITO Basic 3.2.1
48 atoms
50 bonds
84 angles
121 dihedrals
20 impropers
12 atom types
22 bond types
44 angle types
12 dihedral types
4 improper types
-35.25712814 76.01506492 xlo xhi
-41.0852076 73.84713135 ylo yhi
-38.75909103 77.51818206 zlo zhi
-4.43753391 -1.06327473 8.32328385 xy xz yz

Masses

1 12.0107  # C
2 12.0107  # C
3 12.0107  # C
4 35.453  # Cl
5 18.9984032  # F
6 1.00794  # H
7 14.0067  # N
8 14.0067  # N
9 15.9994  # O
10 15.9994  # O
11 15.9994  # O
12 65.38  # Zn

Atoms  # full

8588 9 3 0.0 -13.47749881 53.09585555 64.25822206
8589 9 3 0.0 -12.97946881 51.89732555 63.75563206
8611 9 3 0.0 -13.47973881 53.26053555 65.73909206
8628 9 10 0.0 -12.36925881 53.35889555 66.23290206
8634 9 10 0.0 -14.59170881 53.27260555 66.23925206
8641 9 5 0.0 -12.43570881 50.97367555 64.56106206
8642 9 5 0.0 -14.60900881 55.12098555 63.76181206
8673 9 6 0.0 -12.6736839 50.6217476 62.09029103
8674 9 6 0.0 -14.3954939 54.5105676 61.32495103
8675 9 6 0.0 -11.3617439 51.3078176 57.35162103
8676 9 6 0.0 -15.3945839 52.2136876 55.37637103
8677 9 6 0.0 -15.1004739 53.4261276 57.24076103
8678 9 6 0.0 -15.2166039 53.3689076 59.61449103
8679 9 6 0.0 -11.2080039 50.6753376 60.86063103
8723 9 3 0.0 -13.0049039 51.6116976 62.38437103
8724 9 3 0.0 -13.4268339 52.5577676 61.44240103
8725 9 3 0.0 -13.9884339 53.7372176 61.97322103
8726 9 3 0.0 -14.0320139 53.9817076 63.34632103
8727 9 3 0.0 -13.3027739 52.3845576 59.96527103
8728 9 3 0.0 -12.2062839 51.8005176 59.27736103
8729 9 3 0.0 -12.2055139 51.7860976 57.85017103
8730 9 3 0.0 -13.2278439 52.3448976 57.06492103
8731 9 3 0.0 -13.2245939 52.3116876 55.58032103
8732 9 3 0.0 -14.4360439 52.2637476 54.86325103
8733 9 3 0.0 -14.4711339 52.2680076 53.46496103
8734 9 3 0.0 -13.3008539 52.2981576 52.71239103
8735 9 3 0.0 -12.0940439 52.3217176 53.40587103
8736 9 3 0.0 -12.0547939 52.3342276 54.80549103
8737 9 3 0.0 -14.2841139 52.9320576 57.76387103
8738 9 3 0.0 -14.3330639 52.9212376 59.16069103
8739 9 2 0.0 -10.9772339 51.1756176 59.92527103
8743 9 3 0.0 -13.2987039 52.1334776 51.23152103
8762 9 10 0.0 -12.1867639 52.1213976 50.73135103
8766 9 10 0.0 -14.4092139 52.0351176 50.73771103
8776 9 5 0.0 -10.8483739 52.3878076 55.39224103
8777 9 5 0.0 -10.9310739 52.3401376 52.73324103
8778 9 5 0.0 -15.6790339 52.2417276 52.88611103
9212 9 6 0.0 -10.6764839 50.3338576 59.28220103
9213 9 6 0.0 -9.4197539 52.4309176 59.11966103
9214 9 6 0.0 -8.7802939 51.0464676 61.77919103
9215 9 6 0.0 -8.4845339 50.2898976 60.20759103
9216 9 6 0.0 -7.6475339 51.7881076 60.63849103
9217 9 6 0.0 -10.2235739 53.0130276 62.02151103
9218 9 6 0.0 -9.0920239 53.9322876 61.02442103
9219 9 6 0.0 -10.8041639 53.9218276 60.61051103
9272 9 2 0.0 -9.7416339 52.0796876 60.10781103
9273 9 2 0.0 -8.5990339 51.2523276 60.71734103
9274 9 2 0.0 -9.9884439 53.3024576 60.99160103

Bonds

1 5 8673 8723
2 5 8674 8725
3 5 8675 8729
4 5 8676 8732
5 5 8677 8737
6 5 8678 8738
7 7 8679 8739
8 7 8739 9212
9 7 9213 9272
10 7 9214 9273
11 7 9215 9273
12 7 9216 9273
13 7 9217 9274
14 7 9218 9274
15 7 9219 9274
16 10 8588 8589
17 10 8588 8726
18 10 8589 8723
19 10 8723 8724
20 10 8724 8725
21 10 8725 8726
22 10 8727 8738
23 10 8727 8728
24 10 8728 8729
25 10 8729 8730
26 10 8730 8737
27 10 8731 8732
28 10 8731 8736
29 10 8732 8733
30 10 8733 8734
31 10 8734 8735
32 10 8735 8736
33 10 8737 8738
34 11 8588 8611
35 11 8724 8727
36 11 8730 8731
37 11 8734 8743
38 12 8728 8739
39 14 8589 8641
40 14 8642 8726
41 14 8733 8778
42 14 8735 8777
43 14 8736 8776
44 20 8739 9272
45 20 9272 9274
46 20 9272 9273
47 21 8611 8628
48 21 8611 8634
49 21 8743 8762
50 21 8743 8766

Angles

1 9 8589 8723 8673
2 9 8724 8723 8673
3 9 8724 8725 8674
4 9 8726 8725 8674
5 9 8728 8729 8675
6 9 8730 8729 8675
7 9 8731 8732 8676
8 9 8733 8732 8676
9 9 8730 8737 8677
10 9 8738 8737 8677
11 9 8727 8738 8678
12 9 8737 8738 8678
13 10 8589 8588 8726
14 10 8588 8589 8723
15 10 8589 8723 8724
16 10 8723 8724 8725
17 10 8724 8725 8726
18 10 8588 8726 8725
19 10 8738 8727 8728
20 10 8727 8728 8729
21 10 8728 8729 8730
22 10 8729 8730 8737
23 10 8732 8731 8736
24 10 8731 8732 8733
25 10 8732 8733 8734
26 10 8733 8734 8735
27 10 8734 8735 8736
28 10 8731 8736 8735
29 10 8730 8737 8738
30 10 8727 8738 8737
31 11 8589 8588 8611
32 11 8611 8588 8726
33 11 8723 8724 8727
34 11 8727 8724 8725
35 11 8724 8727 8738
36 11 8724 8727 8728
37 11 8729 8730 8731
38 11 8737 8730 8731
39 11 8730 8731 8732
40 11 8730 8731 8736
41 11 8733 8734 8743
42 11 8743 8734 8735
43 12 8739 8728 8727
44 12 8739 8728 8729
45 14 8679 8739 9212
46 14 9214 9273 9215
47 14 9214 9273 9216
48 14 9215 9273 9216
49 14 9217 9274 9218
50 14 9217 9274 9219
51 14 9218 9274 9219
52 15 8728 8739 8679
53 15 8728 8739 9212
54 16 8588 8589 8641
55 16 8723 8589 8641
56 16 8588 8726 8642
57 16 8725 8726 8642
58 16 8732 8733 8778
59 16 8734 8733 8778
60 16 8734 8735 8777
61 16 8736 8735 8777
62 16 8731 8736 8776
63 16 8735 8736 8776
64 28 9272 8739 8679
65 28 9272 8739 9212
66 28 8739 9272 9213
67 28 9274 9272 9213
68 28 9273 9272 9213
69 28 9272 9273 9214
70 28 9272 9273 9215
71 28 9272 9273 9216
72 28 9272 9274 9217
73 28 9272 9274 9218
74 28 9272 9274 9219
75 29 9272 8739 8728
76 30 8739 9272 9274
77 30 8739 9272 9273
78 30 9274 9272 9273
79 31 8588 8611 8628
80 31 8588 8611 8634
81 31 8734 8743 8762
82 31 8734 8743 8766
83 32 8628 8611 8634
84 32 8762 8743 8766

Dihedrals

1 3 8611 8588 8589 8641
2 3 8611 8588 8589 8723
3 3 8726 8588 8589 8641
4 3 8726 8588 8589 8723
5 3 8589 8588 8726 8642
6 3 8589 8588 8726 8725
7 3 8611 8588 8726 8642
8 3 8611 8588 8726 8725
9 3 8588 8589 8723 8673
10 3 8588 8589 8723 8724
11 3 8641 8589 8723 8673
12 3 8641 8589 8723 8724
13 3 8589 8723 8724 8727
14 3 8589 8723 8724 8725
15 3 8673 8723 8724 8727
16 3 8673 8723 8724 8725
17 3 8723 8724 8725 8674
18 3 8723 8724 8725 8726
19 3 8727 8724 8725 8674
20 3 8727 8724 8725 8726
21 3 8674 8725 8726 8588
22 3 8674 8725 8726 8642
23 3 8724 8725 8726 8588
24 3 8724 8725 8726 8642
25 3 8724 8727 8738 8678
26 3 8724 8727 8738 8737
27 3 8728 8727 8738 8678
28 3 8728 8727 8738 8737
29 3 8724 8727 8728 8729
30 3 8724 8727 8728 8739
31 3 8738 8727 8728 8729
32 3 8738 8727 8728 8739
33 3 8727 8728 8729 8675
34 3 8727 8728 8729 8730
35 3 8739 8728 8729 8675
36 3 8739 8728 8729 8730
37 3 8675 8729 8730 8737
38 3 8675 8729 8730 8731
39 3 8728 8729 8730 8737
40 3 8728 8729 8730 8731
41 3 8729 8730 8737 8677
42 3 8729 8730 8737 8738
43 3 8731 8730 8737 8677
44 3 8731 8730 8737 8738
45 3 8730 8731 8732 8676
46 3 8730 8731 8732 8733
47 3 8736 8731 8732 8676
48 3 8736 8731 8732 8733
49 3 8730 8731 8736 8735
50 3 8730 8731 8736 8776
51 3 8732 8731 8736 8735
52 3 8732 8731 8736 8776
53 3 8676 8732 8733 8734
54 3 8676 8732 8733 8778
55 3 8731 8732 8733 8734
56 3 8731 8732 8733 8778
57 3 8732 8733 8734 8743
58 3 8732 8733 8734 8735
59 3 8778 8733 8734 8743
60 3 8778 8733 8734 8735
61 3 8733 8734 8735 8736
62 3 8733 8734 8735 8777
63 3 8743 8734 8735 8736
64 3 8743 8734 8735 8777
65 3 8734 8735 8736 8731
66 3 8734 8735 8736 8776
67 3 8777 8735 8736 8731
68 3 8777 8735 8736 8776
69 3 8677 8737 8738 8678
70 3 8677 8737 8738 8727
71 3 8730 8737 8738 8678
72 3 8730 8737 8738 8727
73 4 8589 8588 8611 8628
74 4 8589 8588 8611 8634
75 4 8726 8588 8611 8628
76 4 8726 8588 8611 8634
77 4 8723 8724 8727 8738
78 4 8723 8724 8727 8728
79 4 8725 8724 8727 8738
80 4 8725 8724 8727 8728
81 4 8729 8730 8731 8732
82 4 8729 8730 8731 8736
83 4 8737 8730 8731 8732
84 4 8737 8730 8731 8736
85 4 8733 8734 8743 8762
86 4 8733 8734 8743 8766
87 4 8735 8734 8743 8762
88 4 8735 8734 8743 8766
89 5 8727 8728 8739 8679
90 5 8727 8728 8739 9212
91 5 8727 8728 8739 9272
92 5 8729 8728 8739 8679
93 5 8729 8728 8739 9212
94 5 8729 8728 8739 9272
95 10 8679 8739 9272 9213
96 10 8679 8739 9272 9274
97 10 8679 8739 9272 9273
98 10 8728 8739 9272 9213
99 10 8728 8739 9272 9274
100 10 8728 8739 9272 9273
101 10 9212 8739 9272 9213
102 10 9212 8739 9272 9274
103 10 9212 8739 9272 9273
104 10 8739 9272 9274 9217
105 10 8739 9272 9274 9218
106 10 8739 9272 9274 9219
107 10 9213 9272 9274 9217
108 10 9213 9272 9274 9218
109 10 9213 9272 9274 9219
110 10 9273 9272 9274 9217
111 10 9273 9272 9274 9218
112 10 9273 9272 9274 9219
113 10 8739 9272 9273 9214
114 10 8739 9272 9273 9215
115 10 8739 9272 9273 9216
116 10 9213 9272 9273 9214
117 10 9213 9272 9273 9215
118 10 9213 9272 9273 9216
119 10 9274 9272 9273 9214
120 10 9274 9272 9273 9215
121 10 9274 9272 9273 9216

Impropers

1 1 8588 8589 8611 8726
2 1 8589 8588 8641 8723
3 1 8723 8589 8673 8724
4 1 8724 8723 8727 8725
5 1 8725 8674 8724 8726
6 1 8726 8588 8642 8725
7 1 8727 8724 8738 8728
8 1 8728 8727 8729 8739
9 1 8729 8675 8728 8730
10 1 8730 8729 8737 8731
11 1 8731 8730 8732 8736
12 1 8732 8676 8731 8733
13 1 8733 8732 8734 8778
14 1 8734 8733 8743 8735
15 1 8735 8734 8736 8777
16 1 8736 8731 8735 8776
17 1 8737 8677 8730 8738
18 1 8738 8678 8727 8737
19 3 8611 8588 8628 8634
20 3 8743 8734 8762 8766
