# LAMMPS data file written by OVITO Basic 3.2.1
33 atoms
35 bonds
56 angles
78 dihedrals
16 impropers
10 atom types
18 bond types
31 angle types
9 dihedral types
3 improper types
-35.78795537 71.98761313 xlo xhi
-40.66883712 73.01402295 ylo yhi
-38.38626204 76.77252408 zlo zhi
-0.68004168 0.26833929 8.32365129 xy xz yz

Masses

1 12.0107  # C
2 12.0107  # C
3 35.453  # Cl
4 63.546  # Cu
5 18.9984032  # F
6 1.00794  # H
7 14.0067  # N
8 14.0067  # N
9 15.9994  # O
10 15.9994  # O

Atoms  # full

28499 27 6 0.0 54.73628537 50.48977712 45.71559204
28500 27 6 0.0 48.23116537 53.91719712 45.29733204
28501 27 6 0.0 45.78553537 53.79874712 45.40910204
28502 27 6 0.0 50.23628537 50.36783712 47.17280204
28503 27 6 0.0 52.00881537 49.23939712 47.92448204
28504 27 6 0.0 53.58504537 49.97811712 48.17858204
28505 27 6 0.0 53.10776537 49.36158712 46.55438204
28547 27 2 0.0 56.60445537 51.31293712 46.29086204
28548 27 2 0.0 55.21599537 51.31607712 46.23264204
28549 27 2 0.0 54.48376537 52.35267712 46.83432204
28550 27 2 0.0 55.25392537 53.34794712 47.45467204
28551 27 2 0.0 56.64622537 53.30253712 47.38280204
28552 27 2 0.0 52.97899537 52.38465712 46.82028204
28553 27 2 0.0 52.25424537 53.57850712 46.53684204
28554 27 2 0.0 50.83589537 53.65773712 46.67681204
28555 27 2 0.0 50.06073537 52.49806712 46.86846204
28556 27 2 0.0 48.56537537 52.44493712 46.87782204
28557 27 2 0.0 47.78211537 53.23746712 46.01046204
28558 27 2 0.0 46.39553537 53.16201712 46.04756204
28559 27 2 0.0 46.45908537 51.52237712 47.63940204
28560 27 2 0.0 47.84262537 51.56654712 47.70411204
28561 27 2 0.0 50.78105537 51.30078712 47.04613204
28562 27 2 0.0 52.20154537 51.23746712 47.10053204
28563 27 1 0.0 52.76673537 49.87836712 47.45546204
28607 27 8 0.0 57.34185537 52.29399712 46.82887204
28608 27 8 0.0 45.70953537 52.30866712 46.83579204
28625 27 5 0.0 57.25296537 50.25383712 45.78807204
28626 27 5 0.0 54.67384537 54.35282712 48.12946204
28627 27 5 0.0 57.34832537 54.32459712 47.88963204
28628 27 5 0.0 48.47408537 50.74637712 48.55657204
28629 27 5 0.0 45.80109537 50.63530712 48.39703204
28888 27 3 0.0 53.08050537 54.96157712 45.84145204
28889 27 3 0.0 50.09632537 55.23861712 46.71609204

Bonds

1 4 28499 28548
2 4 28500 28557
3 4 28501 28558
4 4 28502 28561
5 5 28503 28563
6 5 28504 28563
7 5 28505 28563
8 7 28547 28625
9 7 28550 28626
10 7 28551 28627
11 7 28559 28629
12 7 28560 28628
13 8 28547 28548
14 8 28548 28549
15 8 28549 28550
16 8 28550 28551
17 8 28552 28553
18 8 28552 28562
19 8 28553 28554
20 8 28554 28555
21 8 28555 28561
22 8 28556 28560
23 8 28556 28557
24 8 28557 28558
25 8 28559 28560
26 8 28561 28562
27 9 28547 28607
28 9 28551 28607
29 9 28558 28608
30 9 28559 28608
31 10 28549 28552
32 10 28555 28556
33 11 28553 28888
34 11 28554 28889
35 12 28562 28563

Angles

1 5 28548 28547 28625
2 5 28549 28550 28626
3 5 28551 28550 28626
4 5 28550 28551 28627
5 5 28560 28559 28629
6 5 28556 28560 28628
7 5 28559 28560 28628
8 6 28625 28547 28607
9 6 28627 28551 28607
10 6 28629 28559 28608
11 7 28548 28547 28607
12 7 28550 28551 28607
13 7 28557 28558 28608
14 7 28560 28559 28608
15 8 28547 28548 28499
16 8 28549 28548 28499
17 8 28556 28557 28500
18 8 28558 28557 28500
19 8 28557 28558 28501
20 8 28555 28561 28502
21 8 28562 28561 28502
22 9 28547 28548 28549
23 9 28548 28549 28550
24 9 28549 28550 28551
25 9 28553 28552 28562
26 9 28552 28553 28554
27 9 28553 28554 28555
28 9 28554 28555 28561
29 9 28560 28556 28557
30 9 28556 28557 28558
31 9 28556 28560 28559
32 9 28555 28561 28562
33 9 28552 28562 28561
34 10 28548 28549 28552
35 10 28552 28549 28550
36 10 28549 28552 28553
37 10 28549 28552 28562
38 10 28554 28555 28556
39 10 28561 28555 28556
40 10 28555 28556 28560
41 10 28555 28556 28557
42 11 28552 28553 28888
43 11 28554 28553 28888
44 11 28553 28554 28889
45 11 28555 28554 28889
46 12 28501 28558 28608
47 13 28563 28562 28552
48 13 28563 28562 28561
49 14 28503 28563 28504
50 14 28503 28563 28505
51 14 28504 28563 28505
52 15 28562 28563 28503
53 15 28562 28563 28504
54 15 28562 28563 28505
55 26 28547 28607 28551
56 26 28558 28608 28559

Dihedrals

1 1 28625 28547 28548 28499
2 1 28625 28547 28548 28549
3 1 28607 28547 28548 28499
4 1 28607 28547 28548 28549
5 1 28499 28548 28549 28552
6 1 28499 28548 28549 28550
7 1 28547 28548 28549 28552
8 1 28547 28548 28549 28550
9 1 28548 28549 28550 28551
10 1 28548 28549 28550 28626
11 1 28552 28549 28550 28551
12 1 28552 28549 28550 28626
13 1 28549 28550 28551 28627
14 1 28549 28550 28551 28607
15 1 28626 28550 28551 28627
16 1 28626 28550 28551 28607
17 1 28549 28552 28553 28554
18 1 28549 28552 28553 28888
19 1 28562 28552 28553 28554
20 1 28562 28552 28553 28888
21 1 28549 28552 28562 28561
22 1 28549 28552 28562 28563
23 1 28553 28552 28562 28561
24 1 28553 28552 28562 28563
25 1 28552 28553 28554 28555
26 1 28552 28553 28554 28889
27 1 28888 28553 28554 28555
28 1 28888 28553 28554 28889
29 1 28553 28554 28555 28561
30 1 28553 28554 28555 28556
31 1 28889 28554 28555 28561
32 1 28889 28554 28555 28556
33 1 28554 28555 28561 28502
34 1 28554 28555 28561 28562
35 1 28556 28555 28561 28502
36 1 28556 28555 28561 28562
37 1 28555 28556 28560 28559
38 1 28555 28556 28560 28628
39 1 28557 28556 28560 28559
40 1 28557 28556 28560 28628
41 1 28555 28556 28557 28500
42 1 28555 28556 28557 28558
43 1 28560 28556 28557 28500
44 1 28560 28556 28557 28558
45 1 28500 28557 28558 28501
46 1 28500 28557 28558 28608
47 1 28556 28557 28558 28501
48 1 28556 28557 28558 28608
49 1 28629 28559 28560 28556
50 1 28629 28559 28560 28628
51 1 28608 28559 28560 28556
52 1 28608 28559 28560 28628
53 1 28502 28561 28562 28552
54 1 28502 28561 28562 28563
55 1 28555 28561 28562 28552
56 1 28555 28561 28562 28563
57 2 28625 28547 28607 28551
58 2 28548 28547 28607 28551
59 2 28550 28551 28607 28547
60 2 28627 28551 28607 28547
61 2 28501 28558 28608 28559
62 2 28557 28558 28608 28559
63 2 28629 28559 28608 28558
64 2 28560 28559 28608 28558
65 3 28548 28549 28552 28553
66 3 28548 28549 28552 28562
67 3 28550 28549 28552 28553
68 3 28550 28549 28552 28562
69 3 28554 28555 28556 28560
70 3 28554 28555 28556 28557
71 3 28561 28555 28556 28560
72 3 28561 28555 28556 28557
73 4 28552 28562 28563 28503
74 4 28552 28562 28563 28504
75 4 28552 28562 28563 28505
76 4 28561 28562 28563 28503
77 4 28561 28562 28563 28504
78 4 28561 28562 28563 28505

Impropers

1 1 28547 28625 28548 28607
2 1 28548 28499 28547 28549
3 1 28549 28548 28552 28550
4 1 28550 28549 28551 28626
5 1 28551 28550 28627 28607
6 1 28552 28549 28553 28562
7 1 28553 28552 28554 28888
8 1 28554 28553 28555 28889
9 1 28555 28554 28561 28556
10 1 28556 28555 28560 28557
11 1 28557 28500 28556 28558
12 1 28558 28501 28557 28608
13 1 28559 28629 28560 28608
14 1 28560 28556 28559 28628
15 1 28561 28502 28555 28562
16 1 28562 28552 28561 28563
